
     Program PWSCF v.7.5 starts on 26Jan2026 at 15:46:23 

     This program is part of the open-source Quantum ESPRESSO suite
     for quantum simulation of materials; please cite
         "P. Giannozzi et al., J. Phys.:Condens. Matter 21 395502 (2009);
         "P. Giannozzi et al., J. Phys.:Condens. Matter 29 465901 (2017);
         "P. Giannozzi et al., J. Chem. Phys. 152 154105 (2020);
          URL http://www.quantum-espresso.org", 
     in publications or presentations arising from this work. More details at
     http://www.quantum-espresso.org/quote

     Parallel version (MPI), running on     1 processors

     MPI processes distributed on     1 nodes
     25009 MiB available memory on the printing compute node when the environment starts

     Waiting for input...
     Reading input from standard input

     Current dimensions of program PWSCF are:
     Max number of different atomic species (ntypx) = 10
     Max number of k-points (npk) =  40000
     Max angular momentum in pseudopotentials (lmaxx) =  4
     file Ga.pbe-dn-kjpaw_psl.1.0.0.UPF: wavefunction(s)  4S renormalized
     file Al.pbe-n-kjpaw_psl.1.0.0.UPF: wavefunction(s)  3S 3P renormalized
     Message from routine volume:
     axis vectors are left-handed
     Message from routine setup:
     using ibrav=0 with symmetry is DISCOURAGED, use correct ibrav instead

     Subspace diagonalization in iterative solution of the eigenvalue problem:
     a serial algorithm will be used


     G-vector sticks info
     --------------------
     sticks:   dense  smooth     PW     G-vecs:    dense   smooth      PW
     Sum         313     313    109                 3695     3695     725

     Using Slab Decomposition



     bravais-lattice index     =            0
     lattice parameter (alat)  =      10.6829  a.u.
     unit-cell volume          =     304.7984 (a.u.)^3
     number of atoms/cell      =            2
     number of atomic types    =            2
     number of electrons       =        16.00
     number of Kohn-Sham states=           12
     kinetic-energy cutoff     =      20.0000  Ry
     charge density cutoff     =      80.0000  Ry
     scf convergence threshold =      1.0E-06
     mixing beta               =       0.7000
     number of iterations used =            8  plain     mixing
     Exchange-correlation= SLA  PW   PBX  PBC
                           (   1   4   3   4   0   0   0)

     celldm(1)=  10.682943  celldm(2)=   0.000000  celldm(3)=   0.000000
     celldm(4)=   0.000000  celldm(5)=   0.000000  celldm(6)=   0.000000

     crystal axes: (cart. coord. in units of alat)
               a(1) = (   0.500000   0.500000   0.000000 )  
               a(2) = (   0.500000   0.000000   0.500000 )  
               a(3) = (   0.000000   0.500000   0.500000 )  

     reciprocal axes: (cart. coord. in units 2 pi/alat)
               b(1) = (  1.000000  1.000000 -1.000000 )  
               b(2) = (  1.000000 -1.000000  1.000000 )  
               b(3) = ( -1.000000  1.000000  1.000000 )  


     PseudoPot. # 1 for Ga read from file:
     /home/nico-sachs/source/q-e/SSSP_1.3.0_PBE_efficiency/Ga.pbe-dn-kjpaw_psl.1.0.0.UPF
     MD5 check sum: a27b4342b1af7e5f338de752e9ed7044
     Pseudo is Projector augmented-wave + core cor, Zval = 13.0
     Generated using "atomic" code by A. Dal Corso  v.5.1
     Shape of augmentation charge: PSQ
     Using radial grid of 1205 points,  6 beta functions with: 
                l(1) =   0
                l(2) =   0
                l(3) =   1
                l(4) =   1
                l(5) =   2
                l(6) =   2
     Q(r) pseudized with 0 coefficients 


     PseudoPot. # 2 for Al read from file:
     /home/nico-sachs/source/q-e/SSSP_1.3.0_PBE_efficiency/Al.pbe-n-kjpaw_psl.1.0.0.UPF
     MD5 check sum: cfc449ca30b5f3223ec38ddd88ac046d
     Pseudo is Projector augmented-wave + core cor, Zval =  3.0
     Generated using "atomic" code by A. Dal Corso  v.5.1
     Shape of augmentation charge: PSQ
     Using radial grid of 1135 points,  6 beta functions with: 
                l(1) =   0
                l(2) =   0
                l(3) =   1
                l(4) =   1
                l(5) =   2
                l(6) =   2
     Q(r) pseudized with 0 coefficients 


     atomic species   valence    mass     pseudopotential
     Ga               13.00    69.72300     Ga( 1.00)
     As                3.00    74.92100     Al( 1.00)

     24 Sym. Ops. (no inversion) found



   Cartesian axes

     site n.     atom                  positions (alat units)
         1        As     tau(   1) = (   0.2500000   0.2500000   0.2500000  )
         2        Ga     tau(   2) = (   0.0000000   0.0000000   0.0000000  )

     number of k points=    60  Marzari-Vanderbilt smearing, width (Ry)=  0.0500
                       cart. coord. in units 2pi/alat
        k(    1) = (   0.0625000   0.0625000   0.0625000), wk =   0.0078125
        k(    2) = (   0.0625000   0.0625000   0.1875000), wk =   0.0234375
        k(    3) = (   0.0625000   0.0625000   0.3125000), wk =   0.0234375
        k(    4) = (   0.0625000   0.0625000   0.4375000), wk =   0.0234375
        k(    5) = (   0.0625000   0.0625000   0.5625000), wk =   0.0234375
        k(    6) = (   0.0625000   0.0625000   0.6875000), wk =   0.0234375
        k(    7) = (   0.0625000   0.0625000   0.8125000), wk =   0.0234375
        k(    8) = (   0.0625000   0.0625000   0.9375000), wk =   0.0234375
        k(    9) = (   0.0625000   0.1875000   0.1875000), wk =   0.0234375
        k(   10) = (   0.0625000   0.1875000   0.3125000), wk =   0.0468750
        k(   11) = (   0.0625000   0.1875000   0.4375000), wk =   0.0468750
        k(   12) = (   0.0625000   0.1875000   0.5625000), wk =   0.0468750
        k(   13) = (   0.0625000   0.1875000   0.6875000), wk =   0.0468750
        k(   14) = (   0.0625000   0.1875000   0.8125000), wk =   0.0468750
        k(   15) = (   0.0625000   0.1875000   0.9375000), wk =   0.0468750
        k(   16) = (   0.0625000   0.3125000   0.3125000), wk =   0.0234375
        k(   17) = (   0.0625000   0.3125000   0.4375000), wk =   0.0468750
        k(   18) = (   0.0625000   0.3125000   0.5625000), wk =   0.0468750
        k(   19) = (   0.0625000   0.3125000   0.6875000), wk =   0.0468750
        k(   20) = (   0.0625000   0.3125000   0.8125000), wk =   0.0468750
        k(   21) = (   0.0625000   0.3125000   0.9375000), wk =   0.0468750
        k(   22) = (   0.0625000   0.4375000   0.4375000), wk =   0.0234375
        k(   23) = (   0.0625000   0.4375000   0.5625000), wk =   0.0468750
        k(   24) = (   0.0625000   0.4375000   0.6875000), wk =   0.0468750
        k(   25) = (   0.0625000   0.4375000   0.8125000), wk =   0.0468750
        k(   26) = (   0.0625000   0.4375000   0.9375000), wk =   0.0468750
        k(   27) = (   0.0625000   0.5625000   0.5625000), wk =   0.0234375
        k(   28) = (   0.0625000   0.5625000   0.6875000), wk =   0.0468750
        k(   29) = (   0.0625000   0.5625000   0.8125000), wk =   0.0468750
        k(   30) = (   0.0625000   0.6875000   0.6875000), wk =   0.0234375
        k(   31) = (   0.0625000   0.6875000   0.8125000), wk =   0.0468750
        k(   32) = (   0.0625000   0.8125000   0.8125000), wk =   0.0234375
        k(   33) = (   0.1875000   0.1875000   0.1875000), wk =   0.0078125
        k(   34) = (   0.1875000   0.1875000   0.3125000), wk =   0.0234375
        k(   35) = (   0.1875000   0.1875000   0.4375000), wk =   0.0234375
        k(   36) = (   0.1875000   0.1875000   0.5625000), wk =   0.0234375
        k(   37) = (   0.1875000   0.1875000   0.6875000), wk =   0.0234375
        k(   38) = (   0.1875000   0.1875000   0.8125000), wk =   0.0234375
        k(   39) = (   0.1875000   0.3125000   0.3125000), wk =   0.0234375
        k(   40) = (   0.1875000   0.3125000   0.4375000), wk =   0.0468750
        k(   41) = (   0.1875000   0.3125000   0.5625000), wk =   0.0468750
        k(   42) = (   0.1875000   0.3125000   0.6875000), wk =   0.0468750
        k(   43) = (   0.1875000   0.3125000   0.8125000), wk =   0.0468750
        k(   44) = (   0.1875000   0.4375000   0.4375000), wk =   0.0234375
        k(   45) = (   0.1875000   0.4375000   0.5625000), wk =   0.0468750
        k(   46) = (   0.1875000   0.4375000   0.6875000), wk =   0.0468750
        k(   47) = (   0.1875000   0.4375000   0.8125000), wk =   0.0468750
        k(   48) = (   0.1875000   0.5625000   0.5625000), wk =   0.0234375
        k(   49) = (   0.1875000   0.5625000   0.6875000), wk =   0.0468750
        k(   50) = (   0.1875000   0.6875000   0.6875000), wk =   0.0234375
        k(   51) = (   0.3125000   0.3125000   0.3125000), wk =   0.0078125
        k(   52) = (   0.3125000   0.3125000   0.4375000), wk =   0.0234375
        k(   53) = (   0.3125000   0.3125000   0.5625000), wk =   0.0234375
        k(   54) = (   0.3125000   0.3125000   0.6875000), wk =   0.0234375
        k(   55) = (   0.3125000   0.4375000   0.4375000), wk =   0.0234375
        k(   56) = (   0.3125000   0.4375000   0.5625000), wk =   0.0468750
        k(   57) = (   0.3125000   0.4375000   0.6875000), wk =   0.0468750
        k(   58) = (   0.3125000   0.5625000   0.5625000), wk =   0.0234375
        k(   59) = (   0.4375000   0.4375000   0.4375000), wk =   0.0078125
        k(   60) = (   0.4375000   0.4375000   0.5625000), wk =   0.0234375

     Dense  grid:     3695 G-vectors     FFT dimensions: (  24,  24,  24)

     Estimated max dynamical RAM per process >      20.76 MB

     Check: negative core charge=   -0.000062

     Initial potential from superposition of free atoms

     starting charge      15.9948, renormalised to      16.0000
     Starting wfcs are   13 randomized atomic wfcs
     Checking if some PAW data can be deallocated... 

     total cpu time spent up to now is        1.3 secs

     Self-consistent Calculation

     iteration #  1     ecut=    20.00 Ry     beta= 0.70
     CG style diagonalization
     ethr =  1.00E-02,  avg # of iterations =  2.9

     Threshold (ethr) on eigenvalues was too large:
     Diagonalizing with lowered threshold

     CG style diagonalization
     ethr =  2.42E-04,  avg # of iterations =  4.1

     total cpu time spent up to now is        3.5 secs

     total energy              =    -317.21447770 Ry
     estimated scf accuracy    <       0.05067183 Ry

     iteration #  2     ecut=    20.00 Ry     beta= 0.70
     CG style diagonalization
     ethr =  3.17E-04,  avg # of iterations =  3.1

     total cpu time spent up to now is        4.7 secs

     total energy              =    -317.21998735 Ry
     estimated scf accuracy    <       0.00229799 Ry

     iteration #  3     ecut=    20.00 Ry     beta= 0.70
     CG style diagonalization
     ethr =  1.44E-05,  avg # of iterations =  4.8

     total cpu time spent up to now is        6.3 secs

     total energy              =    -317.22077902 Ry
     estimated scf accuracy    <       0.00009535 Ry

     iteration #  4     ecut=    20.00 Ry     beta= 0.70
     CG style diagonalization
     ethr =  5.96E-07,  avg # of iterations =  4.4

     total cpu time spent up to now is        7.9 secs

     total energy              =    -317.22080475 Ry
     estimated scf accuracy    <       0.00000696 Ry

     iteration #  5     ecut=    20.00 Ry     beta= 0.70
     CG style diagonalization
     ethr =  4.35E-08,  avg # of iterations =  3.9

     total cpu time spent up to now is        9.4 secs

     total energy              =    -317.22080760 Ry
     estimated scf accuracy    <       0.00000141 Ry

     iteration #  6     ecut=    20.00 Ry     beta= 0.70
     CG style diagonalization
     ethr =  8.83E-09,  avg # of iterations =  3.8

     total cpu time spent up to now is       10.8 secs

     End of self-consistent calculation

          k = 0.0625 0.0625 0.0625 (   468 PWs)   bands (ev):

   -10.3982 -10.3726 -10.3726 -10.2843 -10.2843  -3.8505   7.6944   8.1963
     8.1963  10.8850  11.0307  11.0311

          k = 0.0625 0.0625 0.1875 (   468 PWs)   bands (ev):

   -10.3825 -10.3799 -10.3750 -10.3004 -10.2859  -3.7165   6.9025   7.6812
     7.9070  10.6137  11.2798  11.6812

          k = 0.0625 0.0625 0.3125 (   468 PWs)   bands (ev):

   -10.3910 -10.3813 -10.3807 -10.3024 -10.2842  -3.4499   6.0151   7.0259
     7.1815  10.0574  11.9756  12.6010

          k = 0.0625 0.0625 0.4375 (   467 PWs)   bands (ev):

   -10.3915 -10.3752 -10.3729 -10.3069 -10.2948  -3.0532   5.0804   6.4041
     6.4108   9.5090  11.4684  13.5939

          k = 0.0625 0.0625 0.5625 (   462 PWs)   bands (ev):

   -10.4006 -10.3671 -10.3635 -10.2991 -10.2879  -2.5314   4.0852   5.7520
     5.8755   9.0353  10.6083  14.4231

          k = 0.0625 0.0625 0.6875 (   457 PWs)   bands (ev):

   -10.3992 -10.3502 -10.3428 -10.3101 -10.2898  -1.8949   3.0475   5.2568
     5.4650   8.6622   9.9330  15.4763

          k = 0.0625 0.0625 0.8125 (   456 PWs)   bands (ev):

   -10.4046 -10.3429 -10.3428 -10.3203 -10.2869  -1.1708   2.0277   4.9301
     5.1851   8.4069   9.4859  16.4649

          k = 0.0625 0.0625 0.9375 (   460 PWs)   bands (ev):

   -10.4112 -10.3504 -10.3492 -10.3260 -10.2880  -0.4785   1.1782   4.7678
     5.0433   8.2770   9.2639  17.1784

          k = 0.0625 0.1875 0.1875 (   475 PWs)   bands (ev):

   -10.3920 -10.3899 -10.3873 -10.3115 -10.3005  -3.5838   6.0929   7.2432
     8.0929  10.8977  11.1902  11.5583

          k = 0.0625 0.1875 0.3125 (   470 PWs)   bands (ev):

   -10.3926 -10.3815 -10.3781 -10.3071 -10.2976  -3.3191   5.2626   6.5840
     7.6618  10.6739  11.4875  12.3016

          k = 0.0625 0.1875 0.4375 (   465 PWs)   bands (ev):

   -10.3931 -10.3739 -10.3720 -10.3003 -10.2891  -2.9263   4.4629   5.9369
     6.8795  10.1436  11.8746  12.5615

          k = 0.0625 0.1875 0.5625 (   457 PWs)   bands (ev):

   -10.3965 -10.3602 -10.3562 -10.2879 -10.2838  -2.4112   3.6721   5.3534
     6.0853   9.6522  11.1974  13.3172

          k = 0.0625 0.1875 0.6875 (   457 PWs)   bands (ev):

   -10.3989 -10.3531 -10.3505 -10.3047 -10.2820  -1.7870   2.8464   4.8499
     5.4644   9.2524  10.6078  14.2027

          k = 0.0625 0.1875 0.8125 (   458 PWs)   bands (ev):

   -10.4048 -10.3508 -10.3437 -10.3151 -10.2869  -1.0854   1.9870   4.4730
     5.0780   8.9754  10.2206  15.1020

          k = 0.0625 0.1875 0.9375 (   459 PWs)   bands (ev):

   -10.4032 -10.3484 -10.3447 -10.3278 -10.2877  -0.4360   1.2446   4.2758
     4.8970   8.8322  10.0338  15.9307

          k = 0.0625 0.3125 0.3125 (   469 PWs)   bands (ev):

   -10.3910 -10.3812 -10.3741 -10.3065 -10.3010  -3.0595   4.4887   5.9385
     7.7559  11.0856  11.5834  11.9523

          k = 0.0625 0.3125 0.4375 (   466 PWs)   bands (ev):

   -10.3945 -10.3770 -10.3703 -10.3010 -10.2934  -2.6755   3.7725   5.3160
     7.2177  11.0458  11.5043  12.6574

          k = 0.0625 0.3125 0.5625 (   462 PWs)   bands (ev):

   -10.3971 -10.3686 -10.3638 -10.2986 -10.2853  -2.1762   3.1178   4.7766
     6.3589  10.6372  11.9772  12.2064

          k = 0.0625 0.3125 0.6875 (   459 PWs)   bands (ev):

   -10.3974 -10.3584 -10.3513 -10.3019 -10.2873  -1.5799   2.4975   4.3414
     5.5060  10.2584  11.6873  12.7099

          k = 0.0625 0.3125 0.8125 (   459 PWs)   bands (ev):

   -10.4023 -10.3576 -10.3432 -10.3148 -10.2810  -0.9300   1.8802   4.0186
     4.8676   9.9921  11.3571  13.5287

          k = 0.0625 0.3125 0.9375 (   460 PWs)   bands (ev):

   -10.4047 -10.3536 -10.3457 -10.3245 -10.2773  -0.3720   1.3477   3.8351
     4.5478   9.8570  11.1928  14.3717

          k = 0.0625 0.4375 0.4375 (   459 PWs)   bands (ev):

   -10.3828 -10.3646 -10.3626 -10.2927 -10.2855  -2.3077   3.1342   4.7214
     7.1461  10.7295  12.2831  12.4786

          k = 0.0625 0.4375 0.5625 (   461 PWs)   bands (ev):

   -10.3878 -10.3723 -10.3594 -10.2966 -10.2845  -1.8379   2.5769   4.2214
     6.5435  10.6713  11.9996  13.2772

          k = 0.0625 0.4375 0.6875 (   463 PWs)   bands (ev):

   -10.3915 -10.3775 -10.3551 -10.3052 -10.2873  -1.2944   2.1049   3.8521
     5.6671  10.9915  11.7734  13.0332

          k = 0.0625 0.4375 0.8125 (   456 PWs)   bands (ev):

   -10.3859 -10.3603 -10.3429 -10.3068 -10.2775  -0.7388   1.7112   3.6390
     4.8385  11.1563  12.0523  12.7836

          k = 0.0625 0.4375 0.9375 (   458 PWs)   bands (ev):

   -10.3874 -10.3643 -10.3452 -10.3138 -10.2779  -0.3235   1.4304   3.5856
     4.2937  11.1124  12.4823  12.9236

          k = 0.0625 0.5625 0.5625 (   454 PWs)   bands (ev):

   -10.3780 -10.3620 -10.3489 -10.2940 -10.2744  -1.4203   2.1151   3.7720
     6.4259   9.9691  13.2984  13.3824

          k = 0.0625 0.5625 0.6875 (   458 PWs)   bands (ev):

   -10.3867 -10.3627 -10.3545 -10.3061 -10.2767  -0.9697   1.7622   3.4816
     5.8410   9.9361  13.0841  14.2489

          k = 0.0625 0.5625 0.8125 (   459 PWs)   bands (ev):

   -10.3908 -10.3649 -10.3472 -10.3121 -10.2800  -0.5670   1.5345   3.4076
     5.0202  10.4209  12.8587  13.6422

          k = 0.0625 0.6875 0.6875 (   455 PWs)   bands (ev):

   -10.3882 -10.3586 -10.3436 -10.3042 -10.2771  -0.6704   1.5234   3.3128
     5.7725   9.2725  13.5019  14.5579

          k = 0.0625 0.6875 0.8125 (   456 PWs)   bands (ev):

   -10.3918 -10.3493 -10.3467 -10.3140 -10.2760  -0.4643   1.3968   3.4245
     5.2655   9.3296  12.2407  14.4497

          k = 0.0625 0.8125 0.8125 (   462 PWs)   bands (ev):

   -10.4093 -10.3531 -10.3490 -10.3227 -10.2883  -0.4344   1.2984   3.7348
     5.2936   8.7475  10.9947  15.9516

          k = 0.1875 0.1875 0.1875 (   471 PWs)   bands (ev):

   -10.3886 -10.3813 -10.3813 -10.3031 -10.3031  -3.4519   5.3054   7.6905
     7.6906  10.4278  11.6198  11.6198

          k = 0.1875 0.1875 0.3125 (   471 PWs)   bands (ev):

   -10.3958 -10.3845 -10.3820 -10.3067 -10.2961  -3.1900   4.5073   7.1276
     7.4184  10.5523  11.3580  12.2382

          k = 0.1875 0.1875 0.4375 (   460 PWs)   bands (ev):

   -10.3901 -10.3659 -10.3580 -10.2970 -10.2856  -2.8018   3.7803   6.5677
     6.6049  10.2753  11.8949  12.9213

          k = 0.1875 0.1875 0.5625 (   454 PWs)   bands (ev):

   -10.3887 -10.3575 -10.3522 -10.2845 -10.2814  -2.2956   3.1230   5.6491
     6.0784   9.7237  11.9763  13.0246

          k = 0.1875 0.1875 0.6875 (   459 PWs)   bands (ev):

   -10.4018 -10.3598 -10.3493 -10.3010 -10.2895  -1.6884   2.5012   4.7545
     5.6926   9.2462  11.4822  14.4062

          k = 0.1875 0.1875 0.8125 (   460 PWs)   bands (ev):

   -10.4026 -10.3530 -10.3490 -10.3167 -10.2883  -1.0197   1.8671   4.0810
     5.4280   8.9155  11.1554  15.2123

          k = 0.1875 0.3125 0.3125 (   468 PWs)   bands (ev):

   -10.3946 -10.3794 -10.3734 -10.3071 -10.2918  -2.9342   3.7415   6.7068
     7.5543  10.4516  11.5960  11.9369

          k = 0.1875 0.3125 0.4375 (   461 PWs)   bands (ev):

   -10.3868 -10.3679 -10.3629 -10.2978 -10.2874  -2.5574   3.0639   6.1094
     7.0985  10.6284  11.4358  12.4027

          k = 0.1875 0.3125 0.5625 (   458 PWs)   bands (ev):

   -10.3942 -10.3644 -10.3576 -10.2852 -10.2847  -2.0726   2.4929   5.4507
     6.3676  10.2543  11.9629  12.9917

          k = 0.1875 0.3125 0.6875 (   457 PWs)   bands (ev):

   -10.3872 -10.3601 -10.3547 -10.2957 -10.2853  -1.5052   2.0302   4.6763
     5.7791   9.8053  12.6083  12.8160

          k = 0.1875 0.3125 0.8125 (   460 PWs)   bands (ev):

   -10.3943 -10.3616 -10.3528 -10.3133 -10.2818  -0.9156   1.6595   3.9113
     5.4284   9.4879  12.3793  13.6164

          k = 0.1875 0.4375 0.4375 (   457 PWs)   bands (ev):

   -10.3756 -10.3653 -10.3645 -10.2875 -10.2841  -2.2030   2.4401   5.5735
     7.1241  10.6302  11.8029  11.9203

          k = 0.1875 0.4375 0.5625 (   456 PWs)   bands (ev):

   -10.3825 -10.3650 -10.3593 -10.2847 -10.2811  -1.7601   1.9478   5.0388
     6.5941  10.7063  11.4001  12.9261

          k = 0.1875 0.4375 0.6875 (   459 PWs)   bands (ev):

   -10.3872 -10.3697 -10.3573 -10.2939 -10.2848  -1.2732   1.6194   4.4943
     5.8554  10.7528  11.4433  13.8471

          k = 0.1875 0.4375 0.8125 (   460 PWs)   bands (ev):

   -10.3905 -10.3674 -10.3545 -10.3078 -10.2793  -0.8315   1.4899   3.8993
     5.2864  10.5464  12.0877  13.7781

          k = 0.1875 0.5625 0.5625 (   455 PWs)   bands (ev):

   -10.3818 -10.3650 -10.3552 -10.2948 -10.2717  -1.3975   1.5593   4.6108
     6.4991  10.1017  12.4803  12.7125

          k = 0.1875 0.5625 0.6875 (   458 PWs)   bands (ev):

   -10.3908 -10.3679 -10.3521 -10.3023 -10.2758  -1.0583   1.3942   4.2284
     5.9704  10.0801  12.2912  13.9355

          k = 0.1875 0.6875 0.6875 (   458 PWs)   bands (ev):

   -10.3892 -10.3634 -10.3541 -10.3082 -10.2786  -0.9367   1.4269   3.9999
     5.8880   9.4396  13.5332  13.8609

          k = 0.3125 0.3125 0.3125 (   468 PWs)   bands (ev):

   -10.3871 -10.3871 -10.3833 -10.2954 -10.2954  -2.6875   2.9925   7.2104
     7.2104  10.0138  11.7294  11.7294

          k = 0.3125 0.3125 0.4375 (   461 PWs)   bands (ev):

   -10.3856 -10.3742 -10.3620 -10.2933 -10.2872  -2.3289   2.3513   6.8120
     6.8846  10.2305  11.3784  12.0412

          k = 0.3125 0.3125 0.5625 (   456 PWs)   bands (ev):

   -10.3859 -10.3664 -10.3593 -10.2832 -10.2792  -1.8798   1.8525   5.9991
     6.4302  10.1830  11.7219  12.5196

          k = 0.3125 0.3125 0.6875 (   456 PWs)   bands (ev):

   -10.3879 -10.3718 -10.3499 -10.2879 -10.2804  -1.3851   1.5298   4.9692
     6.1128   9.7680  12.6564  13.1387

          k = 0.3125 0.4375 0.4375 (   461 PWs)   bands (ev):

   -10.3923 -10.3710 -10.3680 -10.2874 -10.2855  -2.0081   1.7645   6.4736
     7.0633  10.1676  11.5775  11.6087

          k = 0.3125 0.4375 0.5625 (   458 PWs)   bands (ev):

   -10.3956 -10.3709 -10.3638 -10.2856 -10.2755  -1.6344   1.3634   5.9440
     6.6767  10.4551  11.2135  12.1934

          k = 0.3125 0.4375 0.6875 (   458 PWs)   bands (ev):

   -10.3909 -10.3685 -10.3597 -10.2895 -10.2837  -1.2858   1.2196   5.1501
     6.2407  10.3438  11.5515  13.0431

          k = 0.3125 0.5625 0.5625 (   455 PWs)   bands (ev):

   -10.3898 -10.3643 -10.3584 -10.2848 -10.2750  -1.4074   1.1247   5.6231
     6.6312  10.2776  11.6215  12.1290

          k = 0.4375 0.4375 0.4375 (   470 PWs)   bands (ev):

   -10.4042 -10.3879 -10.3879 -10.2956 -10.2956  -1.7595   1.2588   6.9493
     6.9493   9.8030  11.5197  11.5197

          k = 0.4375 0.4375 0.5625 (   459 PWs)   bands (ev):

   -10.3991 -10.3746 -10.3662 -10.2833 -10.2750  -1.5293   1.0171   6.5436
     6.7942  10.0894  11.3395  11.7062

     the Fermi energy is     5.5937 ev

!    total energy              =    -317.22080816 Ry
     total all-electron energy =     -4373.528250 Ry
     estimated scf accuracy    <       0.00000013 Ry
     smearing contrib. (-TS)   =      -0.00119649 Ry
     internal energy E=F+TS    =    -317.21961167 Ry

     The total energy is F=E-TS. E is the sum of the following terms:
     one-electron contribution =    -123.55447158 Ry
     hartree contribution      =      74.13976204 Ry
     xc contribution           =     -40.29483922 Ry
     ewald contribution        =     -82.24853885 Ry
     one-center paw contrib.   =    -145.26152405 Ry

     convergence has been achieved in   6 iterations

     Forces acting on atoms (cartesian axes, Ry/au):

     atom    1 type  2   force =     0.00000000    0.00000000    0.00000000
     atom    2 type  1   force =    -0.00000000   -0.00000000   -0.00000000

     Total force =     0.000000     Total SCF correction =     0.000000


     Computing stress (Cartesian axis) and pressure

          total   stress  (Ry/bohr**3)                   (kbar)     P=     -131.43
  -0.00089342  -0.00000000  -0.00000000         -131.43       -0.00       -0.00
  -0.00000000  -0.00089342   0.00000000           -0.00     -131.43        0.00
  -0.00000000   0.00000000  -0.00089342           -0.00        0.00     -131.43


     Writing all to output data dir /home/nico-sachs/source/q-e/tempdir/al.save/ :
     XML data file, charge density, pseudopotentials, collected wavefunctions

     init_run     :      1.04s CPU      1.10s WALL (       1 calls)
     electrons    :      9.07s CPU      9.53s WALL (       1 calls)
     forces       :      0.11s CPU      0.11s WALL (       1 calls)
     stress       :      0.52s CPU      0.52s WALL (       1 calls)

     Called by init_run:
     wfcinit      :      0.33s CPU      0.33s WALL (       1 calls)
     potinit      :      0.32s CPU      0.37s WALL (       1 calls)
     hinit0       :      0.37s CPU      0.37s WALL (       1 calls)

     Called by electrons:
     c_bands      :      6.37s CPU      6.62s WALL (       7 calls)
     sum_band     :      0.68s CPU      0.69s WALL (       7 calls)
     v_of_rho     :      0.03s CPU      0.03s WALL (       7 calls)
     newd         :      0.10s CPU      0.11s WALL (       7 calls)
     PAW_pot      :      2.21s CPU      2.45s WALL (       7 calls)
     mix_rho      :      0.00s CPU      0.00s WALL (       7 calls)

     Called by c_bands:
     init_us_2    :      0.12s CPU      0.12s WALL (    1020 calls)
     ccgdiagg     :      5.37s CPU      5.61s WALL (     420 calls)
     wfcrot       :      1.24s CPU      1.26s WALL (     360 calls)

     Called by *cgdiagg:
     h_psi        :      4.45s CPU      4.62s WALL (   16204 calls)
     s_psi        :      0.97s CPU      1.01s WALL (   32048 calls)

     Called by h_psi:
     h_psi:calbec :      0.68s CPU      0.70s WALL (   16204 calls)
     vloc_psi     :      3.15s CPU      3.27s WALL (   16204 calls)
                                        0.00s GPU  (   16204 calls)
     add_vuspsi   :      0.54s CPU      0.56s WALL (   16204 calls)
     hs_1psi      :      3.98s CPU      4.15s WALL (   15844 calls)
     s_1psi       :      1.04s CPU      1.08s WALL (   15844 calls)

     General routines
     calbec       :      1.62s CPU      1.67s WALL (   33488 calls)
     fft          :      0.15s CPU      0.15s WALL (     103 calls)
     ffts         :      0.00s CPU      0.00s WALL (       7 calls)
     fftw         :      3.07s CPU      3.18s WALL (   45488 calls)

     Parallel routines

     PWSCF        :     10.91s CPU     11.46s WALL


   This run was terminated on:  15:46:34  26Jan2026            

=------------------------------------------------------------------------------=
   JOB DONE.
=------------------------------------------------------------------------------=
