ANIMSTEPS   12
CRYSTAL
PRIMVEC
    3.183640752    0.000000000    0.000000000
   -1.591820376    2.757113768    0.000000000
    0.000000000    0.000000000    5.178018493
PRIMCOORD    1
      4   1
Ga       -0.00000   1.83808   0.00000  -0.00111   0.04999  -0.00004
Ga        1.59182   0.91904   2.58901  -0.00111   0.04999  -0.00004
N        -0.00000   1.83808   1.94176  -0.00111   0.04999  -0.00004
N         1.59182   0.91904   4.53077  -0.00111   0.04999  -0.00004
PRIMCOORD    2
      4   1
Ga       -0.00000   1.83808   0.00000   0.04999   0.00111   0.00033
Ga        1.59182   0.91904   2.58901   0.04999   0.00111   0.00033
N        -0.00000   1.83808   1.94176   0.04999   0.00111   0.00033
N         1.59182   0.91904   4.53077   0.04999   0.00111   0.00033
PRIMCOORD    3
      4   1
Ga       -0.00000   1.83808   0.00000  -0.00033   0.00003   0.05000
Ga        1.59182   0.91904   2.58901  -0.00033   0.00003   0.05000
N        -0.00000   1.83808   1.94176  -0.00033   0.00003   0.05000
N         1.59182   0.91904   4.53077  -0.00033   0.00003   0.05000
PRIMCOORD    4
      4   1
Ga       -0.00000   1.83808   0.00000   0.00315   0.05508   0.00000
Ga        1.59182   0.91904   2.58901  -0.00315  -0.05508  -0.00000
N        -0.00000   1.83808   1.94176  -0.00252  -0.04415   0.00000
N         1.59182   0.91904   4.53077   0.00252   0.04415   0.00000
PRIMCOORD    5
      4   1
Ga       -0.00000   1.83808   0.00000  -0.05508   0.00315   0.00000
Ga        1.59182   0.91904   2.58901   0.05508  -0.00315   0.00000
N        -0.00000   1.83808   1.94176   0.04415  -0.00252   0.00000
N         1.59182   0.91904   4.53077  -0.04415   0.00252   0.00000
PRIMCOORD    6
      4   1
Ga       -0.00000   1.83808   0.00000  -0.00000   0.00000  -0.07001
Ga        1.59182   0.91904   2.58901  -0.00000  -0.00000   0.07001
N        -0.00000   1.83808   1.94176   0.00000   0.00000  -0.00992
N         1.59182   0.91904   4.53077   0.00000   0.00000   0.00992
PRIMCOORD    7
      4   1
Ga       -0.00000   1.83808   0.00000   0.00125  -0.01387  -0.00000
Ga        1.59182   0.91904   2.58901   0.00125  -0.01387  -0.00000
N        -0.00000   1.83808   1.94176  -0.00622   0.06905   0.00000
N         1.59182   0.91904   4.53077  -0.00622   0.06905  -0.00000
PRIMCOORD    8
      4   1
Ga       -0.00000   1.83808   0.00000  -0.01387  -0.00125   0.00000
Ga        1.59182   0.91904   2.58901  -0.01387  -0.00125  -0.00000
N        -0.00000   1.83808   1.94176   0.06905   0.00622   0.00000
N         1.59182   0.91904   4.53077   0.06905   0.00622  -0.00000
PRIMCOORD    9
      4   1
Ga       -0.00000   1.83808   0.00000  -0.00459   0.01026   0.00000
Ga        1.59182   0.91904   2.58901   0.00459  -0.01026  -0.00000
N        -0.00000   1.83808   1.94176  -0.02854   0.06371   0.00000
N         1.59182   0.91904   4.53077   0.02854  -0.06371  -0.00000
PRIMCOORD   10
      4   1
Ga       -0.00000   1.83808   0.00000  -0.01026  -0.00459   0.00000
Ga        1.59182   0.91904   2.58901   0.01026   0.00459  -0.00000
N        -0.00000   1.83808   1.94176  -0.06371  -0.02854   0.00000
N         1.59182   0.91904   4.53077   0.06371   0.02854  -0.00000
PRIMCOORD   11
      4   1
Ga       -0.00000   1.83808   0.00000  -0.00000  -0.00000   0.00201
Ga        1.59182   0.91904   2.58901  -0.00000  -0.00000  -0.00201
N        -0.00000   1.83808   1.94176  -0.00000  -0.00000  -0.07068
N         1.59182   0.91904   4.53077   0.00000   0.00000   0.07068
PRIMCOORD   12
      4   1
Ga       -0.00000   1.83808   0.00000   0.00000   0.00000  -0.01393
Ga        1.59182   0.91904   2.58901   0.00000   0.00000  -0.01393
N        -0.00000   1.83808   1.94176   0.00000   0.00000   0.06933
N         1.59182   0.91904   4.53077  -0.00000  -0.00000   0.06933
