[Molden Format]
[FREQ]
    0.00
    0.00
    0.00
  119.04
  119.04
  323.28
  535.69
  535.69
  547.91
  547.91
  693.48
  719.42
[FR-COORD]
Ga            -0.00000        3.47346        0.00000
Ga             3.00810        1.73673        4.89252
N             -0.00000        3.47346        3.66939
N              3.00810        1.73673        8.56191
[FR-NORM-COORD]
 vibration     1
  -0.01109   0.49988  -0.00039
  -0.01109   0.49988  -0.00039
  -0.01109   0.49988  -0.00039
  -0.01109   0.49988  -0.00039
 vibration     2
   0.49987   0.01109   0.00326
   0.49987   0.01109   0.00326
   0.49987   0.01109   0.00326
   0.49987   0.01109   0.00326
 vibration     3
  -0.00327   0.00032   0.49999
  -0.00327   0.00032   0.49999
  -0.00327   0.00032   0.49999
  -0.00327   0.00032   0.49999
 vibration     4
   0.03148   0.55084   0.00000
  -0.03148  -0.55084  -0.00000
  -0.02523  -0.44153   0.00000
   0.02523   0.44153   0.00000
 vibration     5
  -0.55084   0.03148   0.00000
   0.55084  -0.03148   0.00000
   0.44153  -0.02523   0.00000
  -0.44153   0.02523   0.00000
 vibration     6
  -0.00000   0.00000  -0.70011
  -0.00000  -0.00000   0.70011
   0.00000   0.00000  -0.09922
   0.00000   0.00000   0.09922
 vibration     7
   0.01249  -0.13871  -0.00000
   0.01249  -0.13871  -0.00000
  -0.06216   0.69046   0.00000
  -0.06216   0.69046  -0.00000
 vibration     8
  -0.13871  -0.01249   0.00000
  -0.13871  -0.01249  -0.00000
   0.69046   0.06216   0.00000
   0.69046   0.06216  -0.00000
 vibration     9
  -0.04595   0.10260   0.00000
   0.04595  -0.10260  -0.00000
  -0.28535   0.63713   0.00000
   0.28535  -0.63713  -0.00000
 vibration    10
  -0.10260  -0.04595   0.00000
   0.10260   0.04595  -0.00000
  -0.63713  -0.28535   0.00000
   0.63713   0.28535  -0.00000
 vibration    11
  -0.00000  -0.00000   0.02012
  -0.00000  -0.00000  -0.02012
  -0.00000  -0.00000  -0.70682
   0.00000   0.00000   0.70682
 vibration    12
   0.00000   0.00000  -0.13927
   0.00000   0.00000  -0.13927
   0.00000   0.00000   0.69326
  -0.00000  -0.00000   0.69326
