
     Program PWSCF v.7.5 starts on 26Jan2026 at 22:55:19 

     This program is part of the open-source Quantum ESPRESSO suite
     for quantum simulation of materials; please cite
         "P. Giannozzi et al., J. Phys.:Condens. Matter 21 395502 (2009);
         "P. Giannozzi et al., J. Phys.:Condens. Matter 29 465901 (2017);
         "P. Giannozzi et al., J. Chem. Phys. 152 154105 (2020);
          URL http://www.quantum-espresso.org", 
     in publications or presentations arising from this work. More details at
     http://www.quantum-espresso.org/quote

     Parallel version (MPI), running on     1 processors

     MPI processes distributed on     1 nodes
     25423 MiB available memory on the printing compute node when the environment starts

     Waiting for input...
     Reading input from standard input

     Current dimensions of program PWSCF are:
     Max number of different atomic species (ntypx) = 10
     Max number of k-points (npk) =  40000
     Max angular momentum in pseudopotentials (lmaxx) =  4
     file In.pbe-dn-rrkjus_psl.0.2.2.UPF: wavefunction(s)  5S renormalized
     Message from routine set_cutoff:
     ecutrho < 4*ecutwfc, are you sure?

     Subspace diagonalization in iterative solution of the eigenvalue problem:
     a serial algorithm will be used


     G-vector sticks info
     --------------------
     sticks:   dense  smooth     PW     G-vecs:    dense   smooth      PW
     Sum         955     955    649                19579    19579   10969

     Using Slab Decomposition



     bravais-lattice index     =            2
     lattice parameter (alat)  =      11.4291  a.u.
     unit-cell volume          =     373.2261 (a.u.)^3
     number of atoms/cell      =            2
     number of atomic types    =            2
     number of electrons       =        18.00
     number of Kohn-Sham states=            9
     kinetic-energy cutoff     =     130.0000  Ry
     charge density cutoff     =     212.0000  Ry
     scf convergence threshold =      1.0E-06
     mixing beta               =       0.7000
     number of iterations used =            8  plain     mixing
     Exchange-correlation= PBE
                           (   1   4   3   4   0   0   0)

     celldm(1)=  11.429064  celldm(2)=   0.000000  celldm(3)=   0.000000
     celldm(4)=   0.000000  celldm(5)=   0.000000  celldm(6)=   0.000000

     crystal axes: (cart. coord. in units of alat)
               a(1) = (  -0.500000   0.000000   0.500000 )  
               a(2) = (   0.000000   0.500000   0.500000 )  
               a(3) = (  -0.500000   0.500000   0.000000 )  

     reciprocal axes: (cart. coord. in units 2 pi/alat)
               b(1) = ( -1.000000 -1.000000  1.000000 )  
               b(2) = (  1.000000  1.000000  1.000000 )  
               b(3) = ( -1.000000  1.000000 -1.000000 )  


     PseudoPot. # 1 for In read from file:
     /home/nico-sachs/source/q-e/SSSP_1.3.0_PBE_efficiency/In.pbe-dn-rrkjus_psl.0.2.2.UPF
     MD5 check sum: 25e7c42c3b55b68f4bf926be2e7201a4
     Pseudo is Ultrasoft + core correction, Zval = 13.0
     Generated using "atomic" code by A. Dal Corso  v.5.0.99 svn rev. 10869
     Using radial grid of 1241 points,  6 beta functions with: 
                l(1) =   0
                l(2) =   0
                l(3) =   1
                l(4) =   1
                l(5) =   2
                l(6) =   2
     Q(r) pseudized with 0 coefficients 


     PseudoPot. # 2 for As read from file:
     /home/nico-sachs/source/q-e/SSSP_1.3.0_PBE_efficiency/As.pbe-n-rrkjus_psl.0.2.UPF
     MD5 check sum: 767315de957beeeb34f87d97bf945c8f
     Pseudo is Ultrasoft + core correction, Zval =  5.0
     Generated using "atomic" code by A. Dal Corso  v.5.0.99 svn rev. 10869
     Using radial grid of 1209 points,  4 beta functions with: 
                l(1) =   0
                l(2) =   0
                l(3) =   1
                l(4) =   1
     Q(r) pseudized with 0 coefficients 


     atomic species   valence    mass     pseudopotential
     In               13.00   114.81800     In( 1.00)
     As                5.00    74.92100     As( 1.00)

     24 Sym. Ops. (no inversion) found



   Cartesian axes

     site n.     atom                  positions (alat units)
         1        In     tau(   1) = (   0.0000000   0.0000000   0.0000000  )
         2        As     tau(   2) = (  -0.2500000   0.2500000   0.2500000  )

     number of k points=    60
                       cart. coord. in units 2pi/alat
        k(    1) = (   0.0625000   0.0625000   0.0625000), wk =   0.0078125
        k(    2) = (   0.0625000   0.0625000   0.1875000), wk =   0.0234375
        k(    3) = (   0.0625000   0.0625000   0.3125000), wk =   0.0234375
        k(    4) = (   0.0625000   0.0625000   0.4375000), wk =   0.0234375
        k(    5) = (   0.0625000   0.0625000   0.5625000), wk =   0.0234375
        k(    6) = (   0.0625000   0.0625000   0.6875000), wk =   0.0234375
        k(    7) = (   0.0625000   0.0625000   0.8125000), wk =   0.0234375
        k(    8) = (   0.0625000   0.0625000   0.9375000), wk =   0.0234375
        k(    9) = (   0.0625000   0.1875000   0.1875000), wk =   0.0234375
        k(   10) = (   0.0625000   0.1875000   0.3125000), wk =   0.0468750
        k(   11) = (   0.0625000   0.1875000   0.4375000), wk =   0.0468750
        k(   12) = (   0.0625000   0.1875000   0.5625000), wk =   0.0468750
        k(   13) = (   0.0625000   0.1875000   0.6875000), wk =   0.0468750
        k(   14) = (   0.0625000   0.1875000   0.8125000), wk =   0.0468750
        k(   15) = (   0.0625000   0.1875000   0.9375000), wk =   0.0468750
        k(   16) = (   0.0625000   0.3125000   0.3125000), wk =   0.0234375
        k(   17) = (   0.0625000   0.3125000   0.4375000), wk =   0.0468750
        k(   18) = (   0.0625000   0.3125000   0.5625000), wk =   0.0468750
        k(   19) = (   0.0625000   0.3125000   0.6875000), wk =   0.0468750
        k(   20) = (   0.0625000   0.3125000   0.8125000), wk =   0.0468750
        k(   21) = (   0.0625000   0.3125000   0.9375000), wk =   0.0468750
        k(   22) = (   0.0625000   0.4375000   0.4375000), wk =   0.0234375
        k(   23) = (   0.0625000   0.4375000   0.5625000), wk =   0.0468750
        k(   24) = (   0.0625000   0.4375000   0.6875000), wk =   0.0468750
        k(   25) = (   0.0625000   0.4375000   0.8125000), wk =   0.0468750
        k(   26) = (   0.0625000   0.4375000   0.9375000), wk =   0.0468750
        k(   27) = (   0.0625000   0.5625000   0.5625000), wk =   0.0234375
        k(   28) = (   0.0625000   0.5625000   0.6875000), wk =   0.0468750
        k(   29) = (   0.0625000   0.5625000   0.8125000), wk =   0.0468750
        k(   30) = (   0.0625000   0.6875000   0.6875000), wk =   0.0234375
        k(   31) = (   0.0625000   0.6875000   0.8125000), wk =   0.0468750
        k(   32) = (   0.0625000   0.8125000   0.8125000), wk =   0.0234375
        k(   33) = (   0.1875000   0.1875000   0.1875000), wk =   0.0078125
        k(   34) = (   0.1875000   0.1875000   0.3125000), wk =   0.0234375
        k(   35) = (   0.1875000   0.1875000   0.4375000), wk =   0.0234375
        k(   36) = (   0.1875000   0.1875000   0.5625000), wk =   0.0234375
        k(   37) = (   0.1875000   0.1875000   0.6875000), wk =   0.0234375
        k(   38) = (   0.1875000   0.1875000   0.8125000), wk =   0.0234375
        k(   39) = (   0.1875000   0.3125000   0.3125000), wk =   0.0234375
        k(   40) = (   0.1875000   0.3125000   0.4375000), wk =   0.0468750
        k(   41) = (   0.1875000   0.3125000   0.5625000), wk =   0.0468750
        k(   42) = (   0.1875000   0.3125000   0.6875000), wk =   0.0468750
        k(   43) = (   0.1875000   0.3125000   0.8125000), wk =   0.0468750
        k(   44) = (   0.1875000   0.4375000   0.4375000), wk =   0.0234375
        k(   45) = (   0.1875000   0.4375000   0.5625000), wk =   0.0468750
        k(   46) = (   0.1875000   0.4375000   0.6875000), wk =   0.0468750
        k(   47) = (   0.1875000   0.4375000   0.8125000), wk =   0.0468750
        k(   48) = (   0.1875000   0.5625000   0.5625000), wk =   0.0234375
        k(   49) = (   0.1875000   0.5625000   0.6875000), wk =   0.0468750
        k(   50) = (   0.1875000   0.6875000   0.6875000), wk =   0.0234375
        k(   51) = (   0.3125000   0.3125000   0.3125000), wk =   0.0078125
        k(   52) = (   0.3125000   0.3125000   0.4375000), wk =   0.0234375
        k(   53) = (   0.3125000   0.3125000   0.5625000), wk =   0.0234375
        k(   54) = (   0.3125000   0.3125000   0.6875000), wk =   0.0234375
        k(   55) = (   0.3125000   0.4375000   0.4375000), wk =   0.0234375
        k(   56) = (   0.3125000   0.4375000   0.5625000), wk =   0.0468750
        k(   57) = (   0.3125000   0.4375000   0.6875000), wk =   0.0468750
        k(   58) = (   0.3125000   0.5625000   0.5625000), wk =   0.0234375
        k(   59) = (   0.4375000   0.4375000   0.4375000), wk =   0.0078125
        k(   60) = (   0.4375000   0.4375000   0.5625000), wk =   0.0234375

     Dense  grid:    19579 G-vectors     FFT dimensions: (  40,  40,  40)

     Estimated max dynamical RAM per process >     157.49 MB

     Check: negative core charge=   -0.000002

     Initial potential from superposition of free atoms

     starting charge      17.9960, renormalised to      18.0000
     Starting wfcs are   13 randomized atomic wfcs

     total cpu time spent up to now is        5.9 secs

     Self-consistent Calculation

     iteration #  1     ecut=   130.00 Ry     beta= 0.70
     CG style diagonalization
     ethr =  1.00E-02,  avg # of iterations =  2.0

     Threshold (ethr) on eigenvalues was too large:
     Diagonalizing with lowered threshold

     CG style diagonalization
     ethr =  3.67E-04,  avg # of iterations =  2.9

     total cpu time spent up to now is       24.5 secs

     total energy              =    -163.05433907 Ry
     estimated scf accuracy    <       0.06793672 Ry

     iteration #  2     ecut=   130.00 Ry     beta= 0.70
     CG style diagonalization
     ethr =  3.77E-04,  avg # of iterations =  3.6

     total cpu time spent up to now is       36.7 secs

     total energy              =    -163.06976207 Ry
     estimated scf accuracy    <       0.01597857 Ry

     iteration #  3     ecut=   130.00 Ry     beta= 0.70
     CG style diagonalization
     ethr =  8.88E-05,  avg # of iterations =  3.6

     total cpu time spent up to now is       48.6 secs

     total energy              =    -163.07422321 Ry
     estimated scf accuracy    <       0.00041515 Ry

     iteration #  4     ecut=   130.00 Ry     beta= 0.70
     CG style diagonalization
     ethr =  2.31E-06,  avg # of iterations =  5.1

     total cpu time spent up to now is       65.4 secs

     total energy              =    -163.07457969 Ry
     estimated scf accuracy    <       0.00006243 Ry

     iteration #  5     ecut=   130.00 Ry     beta= 0.70
     CG style diagonalization
     ethr =  3.47E-07,  avg # of iterations =  4.0

     total cpu time spent up to now is       78.7 secs

     total energy              =    -163.07457892 Ry
     estimated scf accuracy    <       0.00003193 Ry

     iteration #  6     ecut=   130.00 Ry     beta= 0.70
     CG style diagonalization
     ethr =  1.77E-07,  avg # of iterations =  3.6

     total cpu time spent up to now is       90.6 secs

     total energy              =    -163.07458137 Ry
     estimated scf accuracy    <       0.00000335 Ry

     iteration #  7     ecut=   130.00 Ry     beta= 0.70
     CG style diagonalization
     ethr =  1.86E-08,  avg # of iterations =  5.4

     total cpu time spent up to now is      108.3 secs

     End of self-consistent calculation

          k = 0.0625 0.0625 0.0625 (  9363 PWs)   bands (ev):

    -7.8925  -7.8858  -7.8858  -7.7628  -7.7628  -5.2857   5.5668   6.4784
     6.4784

          k = 0.0625 0.0625 0.1875 (  9369 PWs)   bands (ev):

    -7.9077  -7.8809  -7.8802  -7.7649  -7.7609  -5.1788   4.8111   6.2027
     6.2582

          k = 0.0625 0.0625 0.3125 (  9363 PWs)   bands (ev):

    -7.9354  -7.8705  -7.8696  -7.7692  -7.7575  -4.9721   3.9776   5.7815
     5.7967

          k = 0.0625 0.0625 0.4375 (  9349 PWs)   bands (ev):

    -7.9689  -7.8565  -7.8557  -7.7755  -7.7531  -4.6794   3.1558   5.2989
     5.3333

          k = 0.0625 0.0625 0.5625 (  9342 PWs)   bands (ev):

    -8.0022  -7.8410  -7.8402  -7.7828  -7.7484  -4.3221   2.3726   4.8481
     4.9264

          k = 0.0625 0.0625 0.6875 (  9347 PWs)   bands (ev):

    -8.0308  -7.8266  -7.8256  -7.7898  -7.7442  -3.9354   1.6625   4.4855
     4.5982

          k = 0.0625 0.0625 0.8125 (  9339 PWs)   bands (ev):

    -8.0516  -7.8155  -7.8142  -7.7953  -7.7410  -3.5800   1.0880   4.2338
     4.3696

          k = 0.0625 0.0625 0.9375 (  9347 PWs)   bands (ev):

    -8.0625  -7.8097  -7.8079  -7.7980  -7.7394  -3.3532   0.7502   4.1053
     4.2526

          k = 0.0625 0.1875 0.1875 (  9380 PWs)   bands (ev):

    -7.9178  -7.8797  -7.8760  -7.7645  -7.7610  -5.0750   4.2308   5.9296
     6.3707

          k = 0.0625 0.1875 0.3125 (  9357 PWs)   bands (ev):

    -7.9410  -7.8717  -7.8676  -7.7675  -7.7581  -4.8747   3.5287   5.4856
     6.0682

          k = 0.0625 0.1875 0.4375 (  9340 PWs)   bands (ev):

    -7.9709  -7.8591  -7.8558  -7.7729  -7.7537  -4.5918   2.8275   5.0144
     5.5633

          k = 0.0625 0.1875 0.5625 (  9338 PWs)   bands (ev):

    -8.0013  -7.8455  -7.8415  -7.7793  -7.7493  -4.2486   2.1605   4.5837
     5.0581

          k = 0.0625 0.1875 0.6875 (  9329 PWs)   bands (ev):

    -8.0276  -7.8328  -7.8273  -7.7855  -7.7457  -3.8808   1.5560   4.2288
     4.6396

          k = 0.0625 0.1875 0.8125 (  9329 PWs)   bands (ev):

    -8.0467  -7.8228  -7.8163  -7.7902  -7.7433  -3.5478   1.0663   3.9740
     4.3497

          k = 0.0625 0.1875 0.9375 (  9333 PWs)   bands (ev):

    -8.0568  -7.8171  -7.8107  -7.7925  -7.7422  -3.3389   0.7786   3.8400
     4.2037

          k = 0.0625 0.3125 0.3125 (  9355 PWs)   bands (ev):

    -7.9554  -7.8685  -7.8631  -7.7662  -7.7582  -4.6873   2.9480   5.0397
     6.1222

          k = 0.0625 0.3125 0.4375 (  9342 PWs)   bands (ev):

    -7.9775  -7.8597  -7.8554  -7.7687  -7.7555  -4.4248   2.3697   4.5823
     5.7792

          k = 0.0625 0.3125 0.5625 (  9337 PWs)   bands (ev):

    -8.0018  -7.8502  -7.8428  -7.7736  -7.7519  -4.1108   1.8384   4.1826
     5.2471

          k = 0.0625 0.3125 0.6875 (  9327 PWs)   bands (ev):

    -8.0235  -7.8413  -7.8291  -7.7788  -7.7492  -3.7819   1.3789   3.8756
     4.7132

          k = 0.0625 0.3125 0.8125 (  9334 PWs)   bands (ev):

    -8.0395  -7.8335  -7.8184  -7.7829  -7.7477  -3.4934   1.0229   3.6789
     4.2871

          k = 0.0625 0.3125 0.9375 (  9346 PWs)   bands (ev):

    -8.0480  -7.8288  -7.8129  -7.7849  -7.7473  -3.3184   0.8207   3.5920
     4.0446

          k = 0.0625 0.4375 0.4375 (  9340 PWs)   bands (ev):

    -7.9902  -7.8541  -7.8536  -7.7654  -7.7575  -4.1946   1.9101   4.1500
     5.7269

          k = 0.0625 0.4375 0.5625 (  9340 PWs)   bands (ev):

    -8.0065  -7.8504  -7.8428  -7.7672  -7.7564  -3.9269   1.5058   3.7893
     5.3551

          k = 0.0625 0.4375 0.6875 (  9341 PWs)   bands (ev):

    -8.0224  -7.8458  -7.8300  -7.7719  -7.7541  -3.6575   1.1853   3.5408
     4.8188

          k = 0.0625 0.4375 0.8125 (  9347 PWs)   bands (ev):

    -8.0346  -7.8410  -7.8194  -7.7762  -7.7527  -3.4332   0.9644   3.4297
     4.2935

          k = 0.0625 0.4375 0.9375 (  9350 PWs)   bands (ev):

    -8.0412  -7.8378  -7.8139  -7.7785  -7.7522  -3.3037   0.8520   3.4499
     3.9203

          k = 0.0625 0.5625 0.5625 (  9333 PWs)   bands (ev):

    -8.0158  -7.8465  -7.8387  -7.7632  -7.7608  -3.7231   1.2238   3.4806
     5.2499

          k = 0.0625 0.5625 0.6875 (  9331 PWs)   bands (ev):

    -8.0268  -7.8432  -7.8289  -7.7697  -7.7566  -3.5314   1.0218   3.3042
     4.8858

          k = 0.0625 0.5625 0.8125 (  9345 PWs)   bands (ev):

    -8.0360  -7.8400  -7.8192  -7.7755  -7.7536  -3.3836   0.9030   3.2938
     4.3828

          k = 0.0625 0.6875 0.6875 (  9328 PWs)   bands (ev):

    -8.0349  -7.8367  -7.8245  -7.7753  -7.7531  -3.4257   0.9103   3.2199
     4.7924

          k = 0.0625 0.6875 0.8125 (  9334 PWs)   bands (ev):

    -8.0431  -7.8316  -7.8174  -7.7815  -7.7493  -3.3536   0.8478   3.3191
     4.4766

          k = 0.0625 0.8125 0.8125 (  9337 PWs)   bands (ev):

    -8.0515  -7.8224  -7.8137  -7.7885  -7.7448  -3.3415   0.8039   3.5156
     4.4413

          k = 0.1875 0.1875 0.1875 (  9366 PWs)   bands (ev):

    -7.9273  -7.8755  -7.8755  -7.7623  -7.7623  -4.9748   3.7194   6.1538
     6.1538

          k = 0.1875 0.1875 0.3125 (  9352 PWs)   bands (ev):

    -7.9474  -7.8703  -7.8675  -7.7654  -7.7585  -4.7815   3.0900   5.8051
     5.8907

          k = 0.1875 0.1875 0.4375 (  9342 PWs)   bands (ev):

    -7.9739  -7.8604  -7.8565  -7.7701  -7.7539  -4.5099   2.4754   5.2969
     5.4175

          k = 0.1875 0.1875 0.5625 (  9335 PWs)   bands (ev):

    -8.0012  -7.8484  -7.8436  -7.7758  -7.7497  -4.1830   1.9118   4.6688
     5.0554

          k = 0.1875 0.1875 0.6875 (  9332 PWs)   bands (ev):

    -8.0250  -7.8367  -7.8307  -7.7815  -7.7467  -3.8373   1.4188   4.1228
     4.7581

          k = 0.1875 0.1875 0.8125 (  9329 PWs)   bands (ev):

    -8.0424  -7.8274  -7.8199  -7.7861  -7.7452  -3.5302   1.0293   3.7246
     4.5490

          k = 0.1875 0.3125 0.3125 (  9351 PWs)   bands (ev):

    -7.9613  -7.8669  -7.8639  -7.7635  -7.7583  -4.6030   2.5389   5.4706
     6.0022

          k = 0.1875 0.3125 0.4375 (  9342 PWs)   bands (ev):

    -7.9811  -7.8603  -7.8565  -7.7658  -7.7549  -4.3548   2.0159   5.0142
     5.6904

          k = 0.1875 0.3125 0.5625 (  9346 PWs)   bands (ev):

    -8.0025  -7.8520  -7.8456  -7.7702  -7.7514  -4.0619   1.5680   4.5083
     5.2357

          k = 0.1875 0.3125 0.6875 (  9338 PWs)   bands (ev):

    -8.0216  -7.8434  -7.8336  -7.7751  -7.7494  -3.7612   1.2161   3.9956
     4.8556

          k = 0.1875 0.3125 0.8125 (  9339 PWs)   bands (ev):

    -8.0357  -7.8360  -7.8233  -7.7792  -7.7490  -3.5048   0.9728   3.5658
     4.6022

          k = 0.1875 0.4375 0.4375 (  9345 PWs)   bands (ev):

    -7.9928  -7.8556  -7.8550  -7.7624  -7.7563  -4.1442   1.5888   4.6185
     5.7033

          k = 0.1875 0.4375 0.5625 (  9343 PWs)   bands (ev):

    -8.0069  -7.8521  -7.8462  -7.7641  -7.7551  -3.9048   1.2532   4.2162
     5.3771

          k = 0.1875 0.4375 0.6875 (  9343 PWs)   bands (ev):

    -8.0203  -7.8477  -7.8349  -7.7686  -7.7535  -3.6721   1.0343   3.8360
     4.9349

          k = 0.1875 0.4375 0.8125 (  9344 PWs)   bands (ev):

    -8.0305  -7.8431  -7.8250  -7.7729  -7.7532  -3.4866   0.9301   3.5045
     4.5729

          k = 0.1875 0.5625 0.5625 (  9338 PWs)   bands (ev):

    -8.0145  -7.8489  -7.8429  -7.7612  -7.7582  -3.7385   1.0330   3.9179
     5.2951

          k = 0.1875 0.5625 0.6875 (  9341 PWs)   bands (ev):

    -8.0232  -7.8460  -7.8342  -7.7672  -7.7550  -3.5917   0.9316   3.6702
     4.9751

          k = 0.1875 0.6875 0.6875 (  9352 PWs)   bands (ev):

    -8.0293  -7.8405  -7.8302  -7.7729  -7.7518  -3.5351   0.9219   3.5618
     4.8783

          k = 0.3125 0.3125 0.3125 (  9327 PWs)   bands (ev):

    -7.9727  -7.8633  -7.8633  -7.7591  -7.7591  -4.4431   2.0346   5.7901
     5.7901

          k = 0.3125 0.3125 0.4375 (  9337 PWs)   bands (ev):

    -7.9880  -7.8600  -7.8573  -7.7614  -7.7547  -4.2250   1.5810   5.4860
     5.5304

          k = 0.3125 0.3125 0.5625 (  9344 PWs)   bands (ev):

    -8.0042  -7.8540  -7.8490  -7.7649  -7.7517  -3.9755   1.2328   4.8273
     5.2687

          k = 0.3125 0.3125 0.6875 (  9346 PWs)   bands (ev):

    -8.0187  -7.8469  -7.8393  -7.7691  -7.7508  -3.7314   1.0141   4.1383
     5.0425

          k = 0.3125 0.4375 0.4375 (  9337 PWs)   bands (ev):

    -7.9973  -7.8571  -7.8565  -7.7581  -7.7550  -4.0549   1.2126   5.2296
     5.6527

          k = 0.3125 0.4375 0.5625 (  9342 PWs)   bands (ev):

    -8.0074  -7.8542  -7.8507  -7.7597  -7.7536  -3.8727   0.9726   4.8030
     5.4140

          k = 0.3125 0.4375 0.6875 (  9337 PWs)   bands (ev):

    -8.0165  -7.8503  -7.8424  -7.7634  -7.7535  -3.7097   0.8853   4.2321
     5.1525

          k = 0.3125 0.5625 0.5625 (  9345 PWs)   bands (ev):

    -8.0118  -7.8524  -7.8488  -7.7583  -7.7550  -3.7780   0.8517   4.5732
     5.3763

          k = 0.4375 0.4375 0.4375 (  9345 PWs)   bands (ev):

    -8.0027  -7.8569  -7.8569  -7.7547  -7.7547  -3.9481   0.9306   5.5742
     5.5742

          k = 0.4375 0.4375 0.5625 (  9346 PWs)   bands (ev):

    -8.0078  -7.8554  -7.8540  -7.7558  -7.7536  -3.8494   0.8050   5.2404
     5.4763

     highest occupied level (ev):     6.4784

!    total energy              =    -163.07458368 Ry
     estimated scf accuracy    <       0.00000047 Ry

     The total energy is the sum of the following terms:
     one-electron contribution =     -63.89571415 Ry
     hartree contribution      =      44.67168318 Ry
     xc contribution           =     -56.90424168 Ry
     ewald contribution        =     -86.94631103 Ry

     convergence has been achieved in   7 iterations

     Forces acting on atoms (cartesian axes, Ry/au):

     atom    1 type  1   force =     0.00000000    0.00000000    0.00000000
     atom    2 type  2   force =     0.00000000    0.00000000    0.00000000

     Total force =     0.000000     Total SCF correction =     0.000000


     Computing stress (Cartesian axis) and pressure

          total   stress  (Ry/bohr**3)                   (kbar)     P=       40.54
   0.00027558  -0.00000000  -0.00000000           40.54       -0.00       -0.00
  -0.00000000   0.00027558   0.00000000           -0.00       40.54        0.00
  -0.00000000   0.00000000   0.00027558           -0.00        0.00       40.54


     Writing all to output data dir /home/nico-sachs/source/q-e/tempdir/inas.save/ :
     XML data file, charge density, pseudopotentials, collected wavefunctions

     init_run     :      5.60s CPU      5.69s WALL (       1 calls)
     electrons    :    101.41s CPU    102.34s WALL (       1 calls)
     forces       :      1.83s CPU      1.85s WALL (       1 calls)
     stress       :      8.08s CPU      8.17s WALL (       1 calls)

     Called by init_run:
     wfcinit      :      4.42s CPU      4.46s WALL (       1 calls)
     potinit      :      0.08s CPU      0.08s WALL (       1 calls)
     hinit0       :      0.94s CPU      0.94s WALL (       1 calls)

     Called by electrons:
     c_bands      :     92.01s CPU     92.43s WALL (       8 calls)
     sum_band     :      8.64s CPU      8.93s WALL (       8 calls)
     v_of_rho     :      0.22s CPU      0.23s WALL (       8 calls)
     newd         :      0.63s CPU      0.87s WALL (       8 calls)
     mix_rho      :      0.02s CPU      0.02s WALL (       8 calls)

     Called by c_bands:
     init_us_2    :      4.11s CPU      4.13s WALL (    1140 calls)
     ccgdiagg     :     76.59s CPU     76.98s WALL (     480 calls)
     wfcrot       :     17.08s CPU     17.15s WALL (     420 calls)

     Called by *cgdiagg:
     h_psi        :     53.14s CPU     53.41s WALL (   13443 calls)
     s_psi        :     18.52s CPU     18.60s WALL (   26466 calls)

     Called by h_psi:
     h_psi:calbec :     13.62s CPU     13.67s WALL (   13443 calls)
     vloc_psi     :     28.36s CPU     28.55s WALL (   13443 calls)
                                        0.00s GPU  (   13443 calls)
     add_vuspsi   :     10.75s CPU     10.78s WALL (   13443 calls)
     hs_1psi      :     49.63s CPU     49.90s WALL (   13023 calls)
     s_1psi       :     19.07s CPU     19.14s WALL (   13023 calls)

     General routines
     calbec       :     32.49s CPU     32.60s WALL (   27966 calls)
     fft          :      0.30s CPU      0.31s WALL (     114 calls)
     ffts         :      0.01s CPU      0.01s WALL (       8 calls)
     fftw         :     27.65s CPU     27.80s WALL (   38406 calls)

     Parallel routines

     PWSCF        :   1m57.23s CPU   1m58.47s WALL


   This run was terminated on:  22:57:17  26Jan2026            

=------------------------------------------------------------------------------=
   JOB DONE.
=------------------------------------------------------------------------------=
