
     Program PWSCF v.7.5 starts on 26Jan2026 at 22:58:27 

     This program is part of the open-source Quantum ESPRESSO suite
     for quantum simulation of materials; please cite
         "P. Giannozzi et al., J. Phys.:Condens. Matter 21 395502 (2009);
         "P. Giannozzi et al., J. Phys.:Condens. Matter 29 465901 (2017);
         "P. Giannozzi et al., J. Chem. Phys. 152 154105 (2020);
          URL http://www.quantum-espresso.org", 
     in publications or presentations arising from this work. More details at
     http://www.quantum-espresso.org/quote

     Parallel version (MPI), running on     1 processors

     MPI processes distributed on     1 nodes
     25431 MiB available memory on the printing compute node when the environment starts

     Waiting for input...
     Reading input from standard input

     Current dimensions of program PWSCF are:
     Max number of different atomic species (ntypx) = 10
     Max number of k-points (npk) =  40000
     Max angular momentum in pseudopotentials (lmaxx) =  4
     file In.pbe-dn-rrkjus_psl.0.2.2.UPF: wavefunction(s)  5S renormalized
     Message from routine set_cutoff:
     ecutrho < 4*ecutwfc, are you sure?

     Subspace diagonalization in iterative solution of the eigenvalue problem:
     a serial algorithm will be used


     G-vector sticks info
     --------------------
     sticks:   dense  smooth     PW     G-vecs:    dense   smooth      PW
     Sum         955     955    547                19579    19579    8393

     Using Slab Decomposition



     bravais-lattice index     =            2
     lattice parameter (alat)  =      11.4291  a.u.
     unit-cell volume          =     373.2261 (a.u.)^3
     number of atoms/cell      =            2
     number of atomic types    =            2
     number of electrons       =        18.00
     number of Kohn-Sham states=            9
     kinetic-energy cutoff     =     107.7778  Ry
     charge density cutoff     =     212.0000  Ry
     scf convergence threshold =      1.0E-06
     mixing beta               =       0.7000
     number of iterations used =            8  plain     mixing
     Exchange-correlation= PBE
                           (   1   4   3   4   0   0   0)

     celldm(1)=  11.429064  celldm(2)=   0.000000  celldm(3)=   0.000000
     celldm(4)=   0.000000  celldm(5)=   0.000000  celldm(6)=   0.000000

     crystal axes: (cart. coord. in units of alat)
               a(1) = (  -0.500000   0.000000   0.500000 )  
               a(2) = (   0.000000   0.500000   0.500000 )  
               a(3) = (  -0.500000   0.500000   0.000000 )  

     reciprocal axes: (cart. coord. in units 2 pi/alat)
               b(1) = ( -1.000000 -1.000000  1.000000 )  
               b(2) = (  1.000000  1.000000  1.000000 )  
               b(3) = ( -1.000000  1.000000 -1.000000 )  


     PseudoPot. # 1 for In read from file:
     /home/nico-sachs/source/q-e/SSSP_1.3.0_PBE_efficiency/In.pbe-dn-rrkjus_psl.0.2.2.UPF
     MD5 check sum: 25e7c42c3b55b68f4bf926be2e7201a4
     Pseudo is Ultrasoft + core correction, Zval = 13.0
     Generated using "atomic" code by A. Dal Corso  v.5.0.99 svn rev. 10869
     Using radial grid of 1241 points,  6 beta functions with: 
                l(1) =   0
                l(2) =   0
                l(3) =   1
                l(4) =   1
                l(5) =   2
                l(6) =   2
     Q(r) pseudized with 0 coefficients 


     PseudoPot. # 2 for As read from file:
     /home/nico-sachs/source/q-e/SSSP_1.3.0_PBE_efficiency/As.pbe-n-rrkjus_psl.0.2.UPF
     MD5 check sum: 767315de957beeeb34f87d97bf945c8f
     Pseudo is Ultrasoft + core correction, Zval =  5.0
     Generated using "atomic" code by A. Dal Corso  v.5.0.99 svn rev. 10869
     Using radial grid of 1209 points,  4 beta functions with: 
                l(1) =   0
                l(2) =   0
                l(3) =   1
                l(4) =   1
     Q(r) pseudized with 0 coefficients 


     atomic species   valence    mass     pseudopotential
     In               13.00   114.81800     In( 1.00)
     As                5.00    74.92100     As( 1.00)

     24 Sym. Ops. (no inversion) found



   Cartesian axes

     site n.     atom                  positions (alat units)
         1        In     tau(   1) = (   0.0000000   0.0000000   0.0000000  )
         2        As     tau(   2) = (  -0.2500000   0.2500000   0.2500000  )

     number of k points=    60
                       cart. coord. in units 2pi/alat
        k(    1) = (   0.0625000   0.0625000   0.0625000), wk =   0.0078125
        k(    2) = (   0.0625000   0.0625000   0.1875000), wk =   0.0234375
        k(    3) = (   0.0625000   0.0625000   0.3125000), wk =   0.0234375
        k(    4) = (   0.0625000   0.0625000   0.4375000), wk =   0.0234375
        k(    5) = (   0.0625000   0.0625000   0.5625000), wk =   0.0234375
        k(    6) = (   0.0625000   0.0625000   0.6875000), wk =   0.0234375
        k(    7) = (   0.0625000   0.0625000   0.8125000), wk =   0.0234375
        k(    8) = (   0.0625000   0.0625000   0.9375000), wk =   0.0234375
        k(    9) = (   0.0625000   0.1875000   0.1875000), wk =   0.0234375
        k(   10) = (   0.0625000   0.1875000   0.3125000), wk =   0.0468750
        k(   11) = (   0.0625000   0.1875000   0.4375000), wk =   0.0468750
        k(   12) = (   0.0625000   0.1875000   0.5625000), wk =   0.0468750
        k(   13) = (   0.0625000   0.1875000   0.6875000), wk =   0.0468750
        k(   14) = (   0.0625000   0.1875000   0.8125000), wk =   0.0468750
        k(   15) = (   0.0625000   0.1875000   0.9375000), wk =   0.0468750
        k(   16) = (   0.0625000   0.3125000   0.3125000), wk =   0.0234375
        k(   17) = (   0.0625000   0.3125000   0.4375000), wk =   0.0468750
        k(   18) = (   0.0625000   0.3125000   0.5625000), wk =   0.0468750
        k(   19) = (   0.0625000   0.3125000   0.6875000), wk =   0.0468750
        k(   20) = (   0.0625000   0.3125000   0.8125000), wk =   0.0468750
        k(   21) = (   0.0625000   0.3125000   0.9375000), wk =   0.0468750
        k(   22) = (   0.0625000   0.4375000   0.4375000), wk =   0.0234375
        k(   23) = (   0.0625000   0.4375000   0.5625000), wk =   0.0468750
        k(   24) = (   0.0625000   0.4375000   0.6875000), wk =   0.0468750
        k(   25) = (   0.0625000   0.4375000   0.8125000), wk =   0.0468750
        k(   26) = (   0.0625000   0.4375000   0.9375000), wk =   0.0468750
        k(   27) = (   0.0625000   0.5625000   0.5625000), wk =   0.0234375
        k(   28) = (   0.0625000   0.5625000   0.6875000), wk =   0.0468750
        k(   29) = (   0.0625000   0.5625000   0.8125000), wk =   0.0468750
        k(   30) = (   0.0625000   0.6875000   0.6875000), wk =   0.0234375
        k(   31) = (   0.0625000   0.6875000   0.8125000), wk =   0.0468750
        k(   32) = (   0.0625000   0.8125000   0.8125000), wk =   0.0234375
        k(   33) = (   0.1875000   0.1875000   0.1875000), wk =   0.0078125
        k(   34) = (   0.1875000   0.1875000   0.3125000), wk =   0.0234375
        k(   35) = (   0.1875000   0.1875000   0.4375000), wk =   0.0234375
        k(   36) = (   0.1875000   0.1875000   0.5625000), wk =   0.0234375
        k(   37) = (   0.1875000   0.1875000   0.6875000), wk =   0.0234375
        k(   38) = (   0.1875000   0.1875000   0.8125000), wk =   0.0234375
        k(   39) = (   0.1875000   0.3125000   0.3125000), wk =   0.0234375
        k(   40) = (   0.1875000   0.3125000   0.4375000), wk =   0.0468750
        k(   41) = (   0.1875000   0.3125000   0.5625000), wk =   0.0468750
        k(   42) = (   0.1875000   0.3125000   0.6875000), wk =   0.0468750
        k(   43) = (   0.1875000   0.3125000   0.8125000), wk =   0.0468750
        k(   44) = (   0.1875000   0.4375000   0.4375000), wk =   0.0234375
        k(   45) = (   0.1875000   0.4375000   0.5625000), wk =   0.0468750
        k(   46) = (   0.1875000   0.4375000   0.6875000), wk =   0.0468750
        k(   47) = (   0.1875000   0.4375000   0.8125000), wk =   0.0468750
        k(   48) = (   0.1875000   0.5625000   0.5625000), wk =   0.0234375
        k(   49) = (   0.1875000   0.5625000   0.6875000), wk =   0.0468750
        k(   50) = (   0.1875000   0.6875000   0.6875000), wk =   0.0234375
        k(   51) = (   0.3125000   0.3125000   0.3125000), wk =   0.0078125
        k(   52) = (   0.3125000   0.3125000   0.4375000), wk =   0.0234375
        k(   53) = (   0.3125000   0.3125000   0.5625000), wk =   0.0234375
        k(   54) = (   0.3125000   0.3125000   0.6875000), wk =   0.0234375
        k(   55) = (   0.3125000   0.4375000   0.4375000), wk =   0.0234375
        k(   56) = (   0.3125000   0.4375000   0.5625000), wk =   0.0468750
        k(   57) = (   0.3125000   0.4375000   0.6875000), wk =   0.0468750
        k(   58) = (   0.3125000   0.5625000   0.5625000), wk =   0.0234375
        k(   59) = (   0.4375000   0.4375000   0.4375000), wk =   0.0078125
        k(   60) = (   0.4375000   0.4375000   0.5625000), wk =   0.0234375

     Dense  grid:    19579 G-vectors     FFT dimensions: (  40,  40,  40)

     Estimated max dynamical RAM per process >     137.39 MB

     Check: negative core charge=   -0.000002

     Initial potential from superposition of free atoms

     starting charge      17.9960, renormalised to      18.0000
     Starting wfcs are   13 randomized atomic wfcs

     total cpu time spent up to now is        5.0 secs

     Self-consistent Calculation

     iteration #  1     ecut=   107.78 Ry     beta= 0.70
     CG style diagonalization
     ethr =  1.00E-02,  avg # of iterations =  2.0

     Threshold (ethr) on eigenvalues was too large:
     Diagonalizing with lowered threshold

     CG style diagonalization
     ethr =  3.65E-04,  avg # of iterations =  2.9

     total cpu time spent up to now is       20.0 secs

     total energy              =    -163.05439000 Ry
     estimated scf accuracy    <       0.06787548 Ry

     iteration #  2     ecut=   107.78 Ry     beta= 0.70
     CG style diagonalization
     ethr =  3.77E-04,  avg # of iterations =  3.6

     total cpu time spent up to now is       29.9 secs

     total energy              =    -163.06962658 Ry
     estimated scf accuracy    <       0.01615701 Ry

     iteration #  3     ecut=   107.78 Ry     beta= 0.70
     CG style diagonalization
     ethr =  8.98E-05,  avg # of iterations =  3.6

     total cpu time spent up to now is       39.6 secs

     total energy              =    -163.07420954 Ry
     estimated scf accuracy    <       0.00042427 Ry

     iteration #  4     ecut=   107.78 Ry     beta= 0.70
     CG style diagonalization
     ethr =  2.36E-06,  avg # of iterations =  5.0

     total cpu time spent up to now is       53.0 secs

     total energy              =    -163.07455717 Ry
     estimated scf accuracy    <       0.00006424 Ry

     iteration #  5     ecut=   107.78 Ry     beta= 0.70
     CG style diagonalization
     ethr =  3.57E-07,  avg # of iterations =  4.0

     total cpu time spent up to now is       63.7 secs

     total energy              =    -163.07455699 Ry
     estimated scf accuracy    <       0.00003188 Ry

     iteration #  6     ecut=   107.78 Ry     beta= 0.70
     CG style diagonalization
     ethr =  1.77E-07,  avg # of iterations =  3.5

     total cpu time spent up to now is       73.3 secs

     total energy              =    -163.07455908 Ry
     estimated scf accuracy    <       0.00000369 Ry

     iteration #  7     ecut=   107.78 Ry     beta= 0.70
     CG style diagonalization
     ethr =  2.05E-08,  avg # of iterations =  5.3

     total cpu time spent up to now is       87.5 secs

     End of self-consistent calculation

          k = 0.0625 0.0625 0.0625 (  7041 PWs)   bands (ev):

    -7.8925  -7.8859  -7.8859  -7.7629  -7.7629  -5.2856   5.5669   6.4786
     6.4786

          k = 0.0625 0.0625 0.1875 (  7051 PWs)   bands (ev):

    -7.9078  -7.8810  -7.8803  -7.7650  -7.7610  -5.1787   4.8111   6.2028
     6.2583

          k = 0.0625 0.0625 0.3125 (  7061 PWs)   bands (ev):

    -7.9355  -7.8706  -7.8697  -7.7693  -7.7576  -4.9720   3.9777   5.7816
     5.7968

          k = 0.0625 0.0625 0.4375 (  7056 PWs)   bands (ev):

    -7.9690  -7.8566  -7.8558  -7.7756  -7.7532  -4.6793   3.1559   5.2990
     5.3334

          k = 0.0625 0.0625 0.5625 (  7051 PWs)   bands (ev):

    -8.0023  -7.8411  -7.8403  -7.7829  -7.7485  -4.3220   2.3727   4.8481
     4.9265

          k = 0.0625 0.0625 0.6875 (  7046 PWs)   bands (ev):

    -8.0309  -7.8267  -7.8257  -7.7899  -7.7443  -3.9352   1.6625   4.4856
     4.5982

          k = 0.0625 0.0625 0.8125 (  7050 PWs)   bands (ev):

    -8.0517  -7.8156  -7.8143  -7.7954  -7.7411  -3.5798   1.0880   4.2339
     4.3696

          k = 0.0625 0.0625 0.9375 (  7055 PWs)   bands (ev):

    -8.0626  -7.8098  -7.8080  -7.7981  -7.7395  -3.3531   0.7502   4.1053
     4.2526

          k = 0.0625 0.1875 0.1875 (  7068 PWs)   bands (ev):

    -7.9179  -7.8798  -7.8761  -7.7646  -7.7611  -5.0749   4.2309   5.9297
     6.3709

          k = 0.0625 0.1875 0.3125 (  7062 PWs)   bands (ev):

    -7.9411  -7.8718  -7.8677  -7.7676  -7.7582  -4.8746   3.5288   5.4857
     6.0683

          k = 0.0625 0.1875 0.4375 (  7067 PWs)   bands (ev):

    -7.9710  -7.8592  -7.8559  -7.7730  -7.7538  -4.5917   2.8275   5.0145
     5.5633

          k = 0.0625 0.1875 0.5625 (  7059 PWs)   bands (ev):

    -8.0014  -7.8456  -7.8416  -7.7794  -7.7494  -4.2485   2.1605   4.5837
     5.0581

          k = 0.0625 0.1875 0.6875 (  7063 PWs)   bands (ev):

    -8.0277  -7.8329  -7.8274  -7.7856  -7.7458  -3.8807   1.5560   4.2289
     4.6396

          k = 0.0625 0.1875 0.8125 (  7048 PWs)   bands (ev):

    -8.0468  -7.8229  -7.8164  -7.7903  -7.7434  -3.5477   1.0663   3.9741
     4.3498

          k = 0.0625 0.1875 0.9375 (  7044 PWs)   bands (ev):

    -8.0568  -7.8172  -7.8108  -7.7926  -7.7423  -3.3387   0.7786   3.8401
     4.2038

          k = 0.0625 0.3125 0.3125 (  7066 PWs)   bands (ev):

    -7.9555  -7.8686  -7.8632  -7.7663  -7.7583  -4.6872   2.9480   5.0397
     6.1223

          k = 0.0625 0.3125 0.4375 (  7060 PWs)   bands (ev):

    -7.9776  -7.8598  -7.8555  -7.7688  -7.7556  -4.4246   2.3698   4.5824
     5.7792

          k = 0.0625 0.3125 0.5625 (  7056 PWs)   bands (ev):

    -8.0019  -7.8503  -7.8429  -7.7737  -7.7520  -4.1107   1.8385   4.1827
     5.2472

          k = 0.0625 0.3125 0.6875 (  7051 PWs)   bands (ev):

    -8.0236  -7.8414  -7.8292  -7.7789  -7.7493  -3.7817   1.3789   3.8756
     4.7133

          k = 0.0625 0.3125 0.8125 (  7046 PWs)   bands (ev):

    -8.0396  -7.8336  -7.8185  -7.7830  -7.7478  -3.4932   1.0229   3.6790
     4.2872

          k = 0.0625 0.3125 0.9375 (  7044 PWs)   bands (ev):

    -8.0481  -7.8289  -7.8130  -7.7850  -7.7474  -3.3182   0.8207   3.5921
     4.0446

          k = 0.0625 0.4375 0.4375 (  7067 PWs)   bands (ev):

    -7.9902  -7.8542  -7.8537  -7.7655  -7.7576  -4.1945   1.9102   4.1500
     5.7270

          k = 0.0625 0.4375 0.5625 (  7053 PWs)   bands (ev):

    -8.0066  -7.8505  -7.8429  -7.7673  -7.7565  -3.9267   1.5059   3.7894
     5.3552

          k = 0.0625 0.4375 0.6875 (  7041 PWs)   bands (ev):

    -8.0225  -7.8459  -7.8301  -7.7720  -7.7542  -3.6574   1.1853   3.5408
     4.8189

          k = 0.0625 0.4375 0.8125 (  7044 PWs)   bands (ev):

    -8.0347  -7.8411  -7.8195  -7.7763  -7.7528  -3.4330   0.9644   3.4298
     4.2936

          k = 0.0625 0.4375 0.9375 (  7048 PWs)   bands (ev):

    -8.0413  -7.8379  -7.8140  -7.7786  -7.7523  -3.3036   0.8520   3.4499
     3.9204

          k = 0.0625 0.5625 0.5625 (  7045 PWs)   bands (ev):

    -8.0159  -7.8466  -7.8388  -7.7633  -7.7609  -3.7230   1.2238   3.4806
     5.2500

          k = 0.0625 0.5625 0.6875 (  7040 PWs)   bands (ev):

    -8.0268  -7.8433  -7.8290  -7.7698  -7.7567  -3.5313   1.0218   3.3043
     4.8859

          k = 0.0625 0.5625 0.8125 (  7042 PWs)   bands (ev):

    -8.0361  -7.8401  -7.8193  -7.7756  -7.7537  -3.3835   0.9030   3.2939
     4.3829

          k = 0.0625 0.6875 0.6875 (  7040 PWs)   bands (ev):

    -8.0350  -7.8368  -7.8246  -7.7754  -7.7532  -3.4255   0.9103   3.2199
     4.7924

          k = 0.0625 0.6875 0.8125 (  7036 PWs)   bands (ev):

    -8.0432  -7.8317  -7.8175  -7.7816  -7.7494  -3.3535   0.8477   3.3191
     4.4767

          k = 0.0625 0.8125 0.8125 (  7039 PWs)   bands (ev):

    -8.0515  -7.8225  -7.8138  -7.7886  -7.7449  -3.3413   0.8039   3.5157
     4.4414

          k = 0.1875 0.1875 0.1875 (  7072 PWs)   bands (ev):

    -7.9274  -7.8756  -7.8756  -7.7624  -7.7624  -4.9747   3.7195   6.1539
     6.1539

          k = 0.1875 0.1875 0.3125 (  7061 PWs)   bands (ev):

    -7.9474  -7.8704  -7.8676  -7.7655  -7.7586  -4.7814   3.0901   5.8052
     5.8908

          k = 0.1875 0.1875 0.4375 (  7061 PWs)   bands (ev):

    -7.9740  -7.8605  -7.8566  -7.7702  -7.7540  -4.5098   2.4755   5.2970
     5.4176

          k = 0.1875 0.1875 0.5625 (  7066 PWs)   bands (ev):

    -8.0013  -7.8485  -7.8437  -7.7759  -7.7498  -4.1829   1.9118   4.6689
     5.0555

          k = 0.1875 0.1875 0.6875 (  7052 PWs)   bands (ev):

    -8.0251  -7.8368  -7.8308  -7.7816  -7.7468  -3.8371   1.4188   4.1229
     4.7582

          k = 0.1875 0.1875 0.8125 (  7046 PWs)   bands (ev):

    -8.0424  -7.8275  -7.8200  -7.7862  -7.7453  -3.5300   1.0293   3.7246
     4.5490

          k = 0.1875 0.3125 0.3125 (  7077 PWs)   bands (ev):

    -7.9614  -7.8670  -7.8640  -7.7636  -7.7584  -4.6029   2.5390   5.4707
     6.0023

          k = 0.1875 0.3125 0.4375 (  7062 PWs)   bands (ev):

    -7.9812  -7.8604  -7.8566  -7.7659  -7.7550  -4.3547   2.0159   5.0142
     5.6905

          k = 0.1875 0.3125 0.5625 (  7061 PWs)   bands (ev):

    -8.0026  -7.8521  -7.8457  -7.7703  -7.7515  -4.0617   1.5680   4.5083
     5.2358

          k = 0.1875 0.3125 0.6875 (  7051 PWs)   bands (ev):

    -8.0217  -7.8435  -7.8337  -7.7752  -7.7495  -3.7611   1.2161   3.9956
     4.8557

          k = 0.1875 0.3125 0.8125 (  7045 PWs)   bands (ev):

    -8.0358  -7.8361  -7.8234  -7.7793  -7.7491  -3.5047   0.9728   3.5659
     4.6022

          k = 0.1875 0.4375 0.4375 (  7060 PWs)   bands (ev):

    -7.9929  -7.8557  -7.8551  -7.7625  -7.7564  -4.1441   1.5889   4.6186
     5.7034

          k = 0.1875 0.4375 0.5625 (  7057 PWs)   bands (ev):

    -8.0070  -7.8522  -7.8463  -7.7642  -7.7552  -3.9046   1.2532   4.2163
     5.3772

          k = 0.1875 0.4375 0.6875 (  7051 PWs)   bands (ev):

    -8.0204  -7.8478  -7.8350  -7.7687  -7.7536  -3.6720   1.0343   3.8360
     4.9350

          k = 0.1875 0.4375 0.8125 (  7039 PWs)   bands (ev):

    -8.0306  -7.8432  -7.8251  -7.7730  -7.7533  -3.4864   0.9301   3.5045
     4.5729

          k = 0.1875 0.5625 0.5625 (  7053 PWs)   bands (ev):

    -8.0146  -7.8490  -7.8430  -7.7613  -7.7583  -3.7384   1.0330   3.9179
     5.2952

          k = 0.1875 0.5625 0.6875 (  7048 PWs)   bands (ev):

    -8.0233  -7.8461  -7.8343  -7.7673  -7.7551  -3.5916   0.9316   3.6703
     4.9752

          k = 0.1875 0.6875 0.6875 (  7042 PWs)   bands (ev):

    -8.0294  -7.8406  -7.8303  -7.7730  -7.7519  -3.5350   0.9219   3.5618
     4.8784

          k = 0.3125 0.3125 0.3125 (  7078 PWs)   bands (ev):

    -7.9728  -7.8634  -7.8634  -7.7593  -7.7593  -4.4430   2.0346   5.7902
     5.7902

          k = 0.3125 0.3125 0.4375 (  7068 PWs)   bands (ev):

    -7.9881  -7.8601  -7.8574  -7.7615  -7.7548  -4.2249   1.5810   5.4861
     5.5304

          k = 0.3125 0.3125 0.5625 (  7048 PWs)   bands (ev):

    -8.0043  -7.8541  -7.8491  -7.7650  -7.7518  -3.9754   1.2328   4.8274
     5.2688

          k = 0.3125 0.3125 0.6875 (  7047 PWs)   bands (ev):

    -8.0188  -7.8470  -7.8394  -7.7692  -7.7509  -3.7312   1.0141   4.1384
     5.0426

          k = 0.3125 0.4375 0.4375 (  7063 PWs)   bands (ev):

    -7.9974  -7.8572  -7.8566  -7.7582  -7.7551  -4.0548   1.2126   5.2296
     5.6527

          k = 0.3125 0.4375 0.5625 (  7053 PWs)   bands (ev):

    -8.0075  -7.8543  -7.8508  -7.7598  -7.7537  -3.8726   0.9726   4.8031
     5.4141

          k = 0.3125 0.4375 0.6875 (  7050 PWs)   bands (ev):

    -8.0166  -7.8504  -7.8425  -7.7635  -7.7536  -3.7096   0.8853   4.2322
     5.1526

          k = 0.3125 0.5625 0.5625 (  7065 PWs)   bands (ev):

    -8.0119  -7.8525  -7.8489  -7.7584  -7.7551  -3.7778   0.8517   4.5733
     5.3764

          k = 0.4375 0.4375 0.4375 (  7057 PWs)   bands (ev):

    -8.0028  -7.8570  -7.8570  -7.7548  -7.7548  -3.9480   0.9306   5.5743
     5.5743

          k = 0.4375 0.4375 0.5625 (  7063 PWs)   bands (ev):

    -8.0079  -7.8555  -7.8541  -7.7559  -7.7537  -3.8492   0.8050   5.2404
     5.4763

     highest occupied level (ev):     6.4786

!    total energy              =    -163.07456151 Ry
     estimated scf accuracy    <       0.00000056 Ry

     The total energy is the sum of the following terms:
     one-electron contribution =     -63.89612269 Ry
     hartree contribution      =      44.67219283 Ry
     xc contribution           =     -56.90432062 Ry
     ewald contribution        =     -86.94631103 Ry

     convergence has been achieved in   7 iterations

     Forces acting on atoms (cartesian axes, Ry/au):

     atom    1 type  1   force =     0.00000000    0.00000000    0.00000000
     atom    2 type  2   force =     0.00000000   -0.00000000    0.00000000

     Total force =     0.000000     Total SCF correction =     0.000000


     Computing stress (Cartesian axis) and pressure

          total   stress  (Ry/bohr**3)                   (kbar)     P=       40.63
   0.00027617   0.00000000  -0.00000000           40.63        0.00       -0.00
   0.00000000   0.00027617   0.00000000            0.00       40.63        0.00
  -0.00000000   0.00000000   0.00027617           -0.00        0.00       40.63


     Writing all to output data dir /home/nico-sachs/source/q-e/tempdir/inas.save/ :
     XML data file, charge density, pseudopotentials, collected wavefunctions

     init_run     :      4.72s CPU      4.80s WALL (       1 calls)
     electrons    :     81.52s CPU     82.42s WALL (       1 calls)
     forces       :      1.42s CPU      1.45s WALL (       1 calls)
     stress       :      6.27s CPU      6.38s WALL (       1 calls)

     Called by init_run:
     wfcinit      :      3.59s CPU      3.62s WALL (       1 calls)
     potinit      :      0.08s CPU      0.08s WALL (       1 calls)
     hinit0       :      0.90s CPU      0.90s WALL (       1 calls)

     Called by electrons:
     c_bands      :     73.41s CPU     73.83s WALL (       8 calls)
     sum_band     :      7.29s CPU      7.57s WALL (       8 calls)
     v_of_rho     :      0.22s CPU      0.23s WALL (       8 calls)
     newd         :      0.68s CPU      0.92s WALL (       8 calls)
     mix_rho      :      0.02s CPU      0.02s WALL (       8 calls)

     Called by c_bands:
     init_us_2    :      3.06s CPU      3.08s WALL (    1140 calls)
     ccgdiagg     :     60.87s CPU     61.24s WALL (     480 calls)
     wfcrot       :     14.10s CPU     14.16s WALL (     420 calls)

     Called by *cgdiagg:
     h_psi        :     44.95s CPU     45.19s WALL (   13335 calls)
     s_psi        :     13.72s CPU     13.81s WALL (   26250 calls)

     Called by h_psi:
     h_psi:calbec :     10.03s CPU     10.07s WALL (   13335 calls)
     vloc_psi     :     26.72s CPU     26.89s WALL (   13335 calls)
                                        0.00s GPU  (   13335 calls)
     add_vuspsi   :      7.88s CPU      7.92s WALL (   13335 calls)
     hs_1psi      :     40.94s CPU     41.18s WALL (   12915 calls)
     s_1psi       :     14.15s CPU     14.24s WALL (   12915 calls)

     General routines
     calbec       :     24.07s CPU     24.18s WALL (   27750 calls)
     fft          :      0.31s CPU      0.31s WALL (     114 calls)
     ffts         :      0.01s CPU      0.01s WALL (       8 calls)
     fftw         :     26.27s CPU     26.40s WALL (   38190 calls)

     Parallel routines

     PWSCF        :   1m34.22s CPU   1m35.41s WALL


   This run was terminated on:  23: 0: 2  26Jan2026            

=------------------------------------------------------------------------------=
   JOB DONE.
=------------------------------------------------------------------------------=
