
     Program PWSCF v.7.5 starts on 26Jan2026 at 22:48:32 

     This program is part of the open-source Quantum ESPRESSO suite
     for quantum simulation of materials; please cite
         "P. Giannozzi et al., J. Phys.:Condens. Matter 21 395502 (2009);
         "P. Giannozzi et al., J. Phys.:Condens. Matter 29 465901 (2017);
         "P. Giannozzi et al., J. Chem. Phys. 152 154105 (2020);
          URL http://www.quantum-espresso.org", 
     in publications or presentations arising from this work. More details at
     http://www.quantum-espresso.org/quote

     Parallel version (MPI), running on     1 processors

     MPI processes distributed on     1 nodes
     25377 MiB available memory on the printing compute node when the environment starts

     Waiting for input...
     Reading input from standard input

     Current dimensions of program PWSCF are:
     Max number of different atomic species (ntypx) = 10
     Max number of k-points (npk) =  40000
     Max angular momentum in pseudopotentials (lmaxx) =  4
     file In.pbe-dn-rrkjus_psl.0.2.2.UPF: wavefunction(s)  5S renormalized
     Message from routine set_cutoff:
     ecutrho < 4*ecutwfc, are you sure?

     Subspace diagonalization in iterative solution of the eigenvalue problem:
     a serial algorithm will be used


     G-vector sticks info
     --------------------
     sticks:   dense  smooth     PW     G-vecs:    dense   smooth      PW
     Sum         955     955    337                19579    19579    4015

     Using Slab Decomposition



     bravais-lattice index     =            2
     lattice parameter (alat)  =      11.4291  a.u.
     unit-cell volume          =     373.2261 (a.u.)^3
     number of atoms/cell      =            2
     number of atomic types    =            2
     number of electrons       =        18.00
     number of Kohn-Sham states=            9
     kinetic-energy cutoff     =      63.3333  Ry
     charge density cutoff     =     212.0000  Ry
     scf convergence threshold =      1.0E-06
     mixing beta               =       0.7000
     number of iterations used =            8  plain     mixing
     Exchange-correlation= PBE
                           (   1   4   3   4   0   0   0)

     celldm(1)=  11.429064  celldm(2)=   0.000000  celldm(3)=   0.000000
     celldm(4)=   0.000000  celldm(5)=   0.000000  celldm(6)=   0.000000

     crystal axes: (cart. coord. in units of alat)
               a(1) = (  -0.500000   0.000000   0.500000 )  
               a(2) = (   0.000000   0.500000   0.500000 )  
               a(3) = (  -0.500000   0.500000   0.000000 )  

     reciprocal axes: (cart. coord. in units 2 pi/alat)
               b(1) = ( -1.000000 -1.000000  1.000000 )  
               b(2) = (  1.000000  1.000000  1.000000 )  
               b(3) = ( -1.000000  1.000000 -1.000000 )  


     PseudoPot. # 1 for In read from file:
     /home/nico-sachs/source/q-e/SSSP_1.3.0_PBE_efficiency/In.pbe-dn-rrkjus_psl.0.2.2.UPF
     MD5 check sum: 25e7c42c3b55b68f4bf926be2e7201a4
     Pseudo is Ultrasoft + core correction, Zval = 13.0
     Generated using "atomic" code by A. Dal Corso  v.5.0.99 svn rev. 10869
     Using radial grid of 1241 points,  6 beta functions with: 
                l(1) =   0
                l(2) =   0
                l(3) =   1
                l(4) =   1
                l(5) =   2
                l(6) =   2
     Q(r) pseudized with 0 coefficients 


     PseudoPot. # 2 for As read from file:
     /home/nico-sachs/source/q-e/SSSP_1.3.0_PBE_efficiency/As.pbe-n-rrkjus_psl.0.2.UPF
     MD5 check sum: 767315de957beeeb34f87d97bf945c8f
     Pseudo is Ultrasoft + core correction, Zval =  5.0
     Generated using "atomic" code by A. Dal Corso  v.5.0.99 svn rev. 10869
     Using radial grid of 1209 points,  4 beta functions with: 
                l(1) =   0
                l(2) =   0
                l(3) =   1
                l(4) =   1
     Q(r) pseudized with 0 coefficients 


     atomic species   valence    mass     pseudopotential
     In               13.00   114.81800     In( 1.00)
     As                5.00    74.92100     As( 1.00)

     24 Sym. Ops. (no inversion) found



   Cartesian axes

     site n.     atom                  positions (alat units)
         1        In     tau(   1) = (   0.0000000   0.0000000   0.0000000  )
         2        As     tau(   2) = (  -0.2500000   0.2500000   0.2500000  )

     number of k points=    60
                       cart. coord. in units 2pi/alat
        k(    1) = (   0.0625000   0.0625000   0.0625000), wk =   0.0078125
        k(    2) = (   0.0625000   0.0625000   0.1875000), wk =   0.0234375
        k(    3) = (   0.0625000   0.0625000   0.3125000), wk =   0.0234375
        k(    4) = (   0.0625000   0.0625000   0.4375000), wk =   0.0234375
        k(    5) = (   0.0625000   0.0625000   0.5625000), wk =   0.0234375
        k(    6) = (   0.0625000   0.0625000   0.6875000), wk =   0.0234375
        k(    7) = (   0.0625000   0.0625000   0.8125000), wk =   0.0234375
        k(    8) = (   0.0625000   0.0625000   0.9375000), wk =   0.0234375
        k(    9) = (   0.0625000   0.1875000   0.1875000), wk =   0.0234375
        k(   10) = (   0.0625000   0.1875000   0.3125000), wk =   0.0468750
        k(   11) = (   0.0625000   0.1875000   0.4375000), wk =   0.0468750
        k(   12) = (   0.0625000   0.1875000   0.5625000), wk =   0.0468750
        k(   13) = (   0.0625000   0.1875000   0.6875000), wk =   0.0468750
        k(   14) = (   0.0625000   0.1875000   0.8125000), wk =   0.0468750
        k(   15) = (   0.0625000   0.1875000   0.9375000), wk =   0.0468750
        k(   16) = (   0.0625000   0.3125000   0.3125000), wk =   0.0234375
        k(   17) = (   0.0625000   0.3125000   0.4375000), wk =   0.0468750
        k(   18) = (   0.0625000   0.3125000   0.5625000), wk =   0.0468750
        k(   19) = (   0.0625000   0.3125000   0.6875000), wk =   0.0468750
        k(   20) = (   0.0625000   0.3125000   0.8125000), wk =   0.0468750
        k(   21) = (   0.0625000   0.3125000   0.9375000), wk =   0.0468750
        k(   22) = (   0.0625000   0.4375000   0.4375000), wk =   0.0234375
        k(   23) = (   0.0625000   0.4375000   0.5625000), wk =   0.0468750
        k(   24) = (   0.0625000   0.4375000   0.6875000), wk =   0.0468750
        k(   25) = (   0.0625000   0.4375000   0.8125000), wk =   0.0468750
        k(   26) = (   0.0625000   0.4375000   0.9375000), wk =   0.0468750
        k(   27) = (   0.0625000   0.5625000   0.5625000), wk =   0.0234375
        k(   28) = (   0.0625000   0.5625000   0.6875000), wk =   0.0468750
        k(   29) = (   0.0625000   0.5625000   0.8125000), wk =   0.0468750
        k(   30) = (   0.0625000   0.6875000   0.6875000), wk =   0.0234375
        k(   31) = (   0.0625000   0.6875000   0.8125000), wk =   0.0468750
        k(   32) = (   0.0625000   0.8125000   0.8125000), wk =   0.0234375
        k(   33) = (   0.1875000   0.1875000   0.1875000), wk =   0.0078125
        k(   34) = (   0.1875000   0.1875000   0.3125000), wk =   0.0234375
        k(   35) = (   0.1875000   0.1875000   0.4375000), wk =   0.0234375
        k(   36) = (   0.1875000   0.1875000   0.5625000), wk =   0.0234375
        k(   37) = (   0.1875000   0.1875000   0.6875000), wk =   0.0234375
        k(   38) = (   0.1875000   0.1875000   0.8125000), wk =   0.0234375
        k(   39) = (   0.1875000   0.3125000   0.3125000), wk =   0.0234375
        k(   40) = (   0.1875000   0.3125000   0.4375000), wk =   0.0468750
        k(   41) = (   0.1875000   0.3125000   0.5625000), wk =   0.0468750
        k(   42) = (   0.1875000   0.3125000   0.6875000), wk =   0.0468750
        k(   43) = (   0.1875000   0.3125000   0.8125000), wk =   0.0468750
        k(   44) = (   0.1875000   0.4375000   0.4375000), wk =   0.0234375
        k(   45) = (   0.1875000   0.4375000   0.5625000), wk =   0.0468750
        k(   46) = (   0.1875000   0.4375000   0.6875000), wk =   0.0468750
        k(   47) = (   0.1875000   0.4375000   0.8125000), wk =   0.0468750
        k(   48) = (   0.1875000   0.5625000   0.5625000), wk =   0.0234375
        k(   49) = (   0.1875000   0.5625000   0.6875000), wk =   0.0468750
        k(   50) = (   0.1875000   0.6875000   0.6875000), wk =   0.0234375
        k(   51) = (   0.3125000   0.3125000   0.3125000), wk =   0.0078125
        k(   52) = (   0.3125000   0.3125000   0.4375000), wk =   0.0234375
        k(   53) = (   0.3125000   0.3125000   0.5625000), wk =   0.0234375
        k(   54) = (   0.3125000   0.3125000   0.6875000), wk =   0.0234375
        k(   55) = (   0.3125000   0.4375000   0.4375000), wk =   0.0234375
        k(   56) = (   0.3125000   0.4375000   0.5625000), wk =   0.0468750
        k(   57) = (   0.3125000   0.4375000   0.6875000), wk =   0.0468750
        k(   58) = (   0.3125000   0.5625000   0.5625000), wk =   0.0234375
        k(   59) = (   0.4375000   0.4375000   0.4375000), wk =   0.0078125
        k(   60) = (   0.4375000   0.4375000   0.5625000), wk =   0.0234375

     Dense  grid:    19579 G-vectors     FFT dimensions: (  40,  40,  40)

     Estimated max dynamical RAM per process >     103.40 MB

     Check: negative core charge=   -0.000002

     Initial potential from superposition of free atoms

     starting charge      17.9960, renormalised to      18.0000
     Starting wfcs are   13 randomized atomic wfcs

     total cpu time spent up to now is        3.5 secs

     Self-consistent Calculation

     iteration #  1     ecut=    63.33 Ry     beta= 0.70
     CG style diagonalization
     ethr =  1.00E-02,  avg # of iterations =  2.0

     Threshold (ethr) on eigenvalues was too large:
     Diagonalizing with lowered threshold

     CG style diagonalization
     ethr =  3.59E-04,  avg # of iterations =  2.9

     total cpu time spent up to now is       12.2 secs

     total energy              =    -163.05405178 Ry
     estimated scf accuracy    <       0.06785416 Ry

     iteration #  2     ecut=    63.33 Ry     beta= 0.70
     CG style diagonalization
     ethr =  3.77E-04,  avg # of iterations =  3.6

     total cpu time spent up to now is       18.0 secs

     total energy              =    -163.06931085 Ry
     estimated scf accuracy    <       0.01618683 Ry

     iteration #  3     ecut=    63.33 Ry     beta= 0.70
     CG style diagonalization
     ethr =  8.99E-05,  avg # of iterations =  3.6

     total cpu time spent up to now is       23.8 secs

     total energy              =    -163.07385581 Ry
     estimated scf accuracy    <       0.00042504 Ry

     iteration #  4     ecut=    63.33 Ry     beta= 0.70
     CG style diagonalization
     ethr =  2.36E-06,  avg # of iterations =  5.0

     total cpu time spent up to now is       31.6 secs

     total energy              =    -163.07420480 Ry
     estimated scf accuracy    <       0.00006087 Ry

     iteration #  5     ecut=    63.33 Ry     beta= 0.70
     CG style diagonalization
     ethr =  3.38E-07,  avg # of iterations =  4.0

     total cpu time spent up to now is       38.0 secs

     total energy              =    -163.07420511 Ry
     estimated scf accuracy    <       0.00002930 Ry

     iteration #  6     ecut=    63.33 Ry     beta= 0.70
     CG style diagonalization
     ethr =  1.63E-07,  avg # of iterations =  3.7

     total cpu time spent up to now is       43.8 secs

     total energy              =    -163.07420823 Ry
     estimated scf accuracy    <       0.00000243 Ry

     iteration #  7     ecut=    63.33 Ry     beta= 0.70
     CG style diagonalization
     ethr =  1.35E-08,  avg # of iterations =  5.6

     total cpu time spent up to now is       52.5 secs

     End of self-consistent calculation

          k = 0.0625 0.0625 0.0625 (  3158 PWs)   bands (ev):

    -7.8905  -7.8838  -7.8838  -7.7608  -7.7608  -5.2857   5.5669   6.4785
     6.4785

          k = 0.0625 0.0625 0.1875 (  3181 PWs)   bands (ev):

    -7.9058  -7.8790  -7.8782  -7.7629  -7.7590  -5.1788   4.8111   6.2027
     6.2583

          k = 0.0625 0.0625 0.3125 (  3182 PWs)   bands (ev):

    -7.9335  -7.8685  -7.8677  -7.7673  -7.7556  -4.9721   3.9777   5.7815
     5.7967

          k = 0.0625 0.0625 0.4375 (  3180 PWs)   bands (ev):

    -7.9670  -7.8545  -7.8537  -7.7735  -7.7511  -4.6793   3.1559   5.2989
     5.3333

          k = 0.0625 0.0625 0.5625 (  3165 PWs)   bands (ev):

    -8.0004  -7.8391  -7.8383  -7.7808  -7.7464  -4.3220   2.3727   4.8480
     4.9264

          k = 0.0625 0.0625 0.6875 (  3179 PWs)   bands (ev):

    -8.0290  -7.8247  -7.8237  -7.7879  -7.7422  -3.9353   1.6625   4.4855
     4.5981

          k = 0.0625 0.0625 0.8125 (  3184 PWs)   bands (ev):

    -8.0498  -7.8136  -7.8122  -7.7933  -7.7391  -3.5799   1.0880   4.2338
     4.3695

          k = 0.0625 0.0625 0.9375 (  3198 PWs)   bands (ev):

    -8.0607  -7.8078  -7.8060  -7.7961  -7.7374  -3.3531   0.7503   4.1052
     4.2525

          k = 0.0625 0.1875 0.1875 (  3173 PWs)   bands (ev):

    -7.9160  -7.8778  -7.8741  -7.7626  -7.7590  -5.0750   4.2309   5.9297
     6.3708

          k = 0.0625 0.1875 0.3125 (  3183 PWs)   bands (ev):

    -7.9391  -7.8697  -7.8657  -7.7656  -7.7561  -4.8747   3.5288   5.4856
     6.0682

          k = 0.0625 0.1875 0.4375 (  3181 PWs)   bands (ev):

    -7.9690  -7.8572  -7.8539  -7.7709  -7.7518  -4.5918   2.8275   5.0144
     5.5633

          k = 0.0625 0.1875 0.5625 (  3175 PWs)   bands (ev):

    -7.9994  -7.8436  -7.8395  -7.7773  -7.7474  -4.2485   2.1605   4.5836
     5.0580

          k = 0.0625 0.1875 0.6875 (  3172 PWs)   bands (ev):

    -8.0258  -7.8309  -7.8254  -7.7836  -7.7437  -3.8807   1.5560   4.2288
     4.6395

          k = 0.0625 0.1875 0.8125 (  3177 PWs)   bands (ev):

    -8.0449  -7.8208  -7.8144  -7.7883  -7.7414  -3.5477   1.0663   3.9740
     4.3497

          k = 0.0625 0.1875 0.9375 (  3187 PWs)   bands (ev):

    -8.0549  -7.8152  -7.8087  -7.7905  -7.7403  -3.3388   0.7786   3.8400
     4.2036

          k = 0.0625 0.3125 0.3125 (  3172 PWs)   bands (ev):

    -7.9535  -7.8666  -7.8611  -7.7643  -7.7562  -4.6873   2.9480   5.0397
     6.1222

          k = 0.0625 0.3125 0.4375 (  3171 PWs)   bands (ev):

    -7.9756  -7.8578  -7.8534  -7.7667  -7.7535  -4.4247   2.3698   4.5823
     5.7792

          k = 0.0625 0.3125 0.5625 (  3172 PWs)   bands (ev):

    -7.9999  -7.8483  -7.8409  -7.7716  -7.7499  -4.1107   1.8385   4.1826
     5.2471

          k = 0.0625 0.3125 0.6875 (  3172 PWs)   bands (ev):

    -8.0217  -7.8394  -7.8272  -7.7768  -7.7472  -3.7818   1.3789   3.8756
     4.7132

          k = 0.0625 0.3125 0.8125 (  3173 PWs)   bands (ev):

    -8.0377  -7.8316  -7.8165  -7.7809  -7.7458  -3.4933   1.0229   3.6789
     4.2871

          k = 0.0625 0.3125 0.9375 (  3179 PWs)   bands (ev):

    -8.0462  -7.8269  -7.8109  -7.7829  -7.7453  -3.3183   0.8207   3.5920
     4.0445

          k = 0.0625 0.4375 0.4375 (  3160 PWs)   bands (ev):

    -7.9883  -7.8522  -7.8516  -7.7634  -7.7555  -4.1946   1.9102   4.1500
     5.7269

          k = 0.0625 0.4375 0.5625 (  3164 PWs)   bands (ev):

    -8.0047  -7.8484  -7.8409  -7.7652  -7.7545  -3.9268   1.5059   3.7893
     5.3551

          k = 0.0625 0.4375 0.6875 (  3177 PWs)   bands (ev):

    -8.0206  -7.8439  -7.8280  -7.7700  -7.7522  -3.6574   1.1853   3.5408
     4.8188

          k = 0.0625 0.4375 0.8125 (  3174 PWs)   bands (ev):

    -8.0328  -7.8391  -7.8175  -7.7743  -7.7508  -3.4331   0.9644   3.4297
     4.2935

          k = 0.0625 0.4375 0.9375 (  3181 PWs)   bands (ev):

    -8.0394  -7.8358  -7.8120  -7.7766  -7.7503  -3.3036   0.8520   3.4498
     3.9203

          k = 0.0625 0.5625 0.5625 (  3169 PWs)   bands (ev):

    -8.0140  -7.8446  -7.8368  -7.7613  -7.7588  -3.7230   1.2238   3.4806
     5.2499

          k = 0.0625 0.5625 0.6875 (  3177 PWs)   bands (ev):

    -8.0249  -7.8412  -7.8269  -7.7678  -7.7546  -3.5313   1.0218   3.3042
     4.8858

          k = 0.0625 0.5625 0.8125 (  3181 PWs)   bands (ev):

    -8.0342  -7.8381  -7.8173  -7.7735  -7.7517  -3.3835   0.9031   3.2938
     4.3828

          k = 0.0625 0.6875 0.6875 (  3182 PWs)   bands (ev):

    -8.0331  -7.8347  -7.8225  -7.7733  -7.7511  -3.4256   0.9104   3.2198
     4.7923

          k = 0.0625 0.6875 0.8125 (  3181 PWs)   bands (ev):

    -8.0413  -7.8297  -7.8154  -7.7796  -7.7474  -3.3535   0.8478   3.3190
     4.4766

          k = 0.0625 0.8125 0.8125 (  3186 PWs)   bands (ev):

    -8.0496  -7.8204  -7.8117  -7.7866  -7.7428  -3.3414   0.8039   3.5156
     4.4413

          k = 0.1875 0.1875 0.1875 (  3170 PWs)   bands (ev):

    -7.9254  -7.8736  -7.8736  -7.7604  -7.7604  -4.9748   3.7195   6.1539
     6.1539

          k = 0.1875 0.1875 0.3125 (  3179 PWs)   bands (ev):

    -7.9455  -7.8683  -7.8656  -7.7634  -7.7566  -4.7815   3.0901   5.8051
     5.8907

          k = 0.1875 0.1875 0.4375 (  3180 PWs)   bands (ev):

    -7.9720  -7.8585  -7.8545  -7.7681  -7.7520  -4.5099   2.4755   5.2970
     5.4175

          k = 0.1875 0.1875 0.5625 (  3177 PWs)   bands (ev):

    -7.9993  -7.8465  -7.8417  -7.7739  -7.7478  -4.1829   1.9118   4.6688
     5.0554

          k = 0.1875 0.1875 0.6875 (  3179 PWs)   bands (ev):

    -8.0232  -7.8348  -7.8288  -7.7796  -7.7448  -3.8372   1.4188   4.1228
     4.7581

          k = 0.1875 0.1875 0.8125 (  3181 PWs)   bands (ev):

    -8.0405  -7.8255  -7.8180  -7.7841  -7.7433  -3.5301   1.0294   3.7245
     4.5489

          k = 0.1875 0.3125 0.3125 (  3182 PWs)   bands (ev):

    -7.9594  -7.8650  -7.8619  -7.7615  -7.7563  -4.6030   2.5390   5.4706
     6.0022

          k = 0.1875 0.3125 0.4375 (  3173 PWs)   bands (ev):

    -7.9792  -7.8584  -7.8545  -7.7638  -7.7530  -4.3548   2.0159   5.0142
     5.6905

          k = 0.1875 0.3125 0.5625 (  3170 PWs)   bands (ev):

    -8.0006  -7.8501  -7.8437  -7.7682  -7.7495  -4.0618   1.5680   4.5083
     5.2357

          k = 0.1875 0.3125 0.6875 (  3174 PWs)   bands (ev):

    -8.0198  -7.8415  -7.8317  -7.7731  -7.7475  -3.7612   1.2161   3.9955
     4.8556

          k = 0.1875 0.3125 0.8125 (  3177 PWs)   bands (ev):

    -8.0339  -7.8341  -7.8214  -7.7772  -7.7470  -3.5047   0.9728   3.5658
     4.6021

          k = 0.1875 0.4375 0.4375 (  3170 PWs)   bands (ev):

    -7.9909  -7.8537  -7.8530  -7.7604  -7.7544  -4.1441   1.5889   4.6185
     5.7033

          k = 0.1875 0.4375 0.5625 (  3171 PWs)   bands (ev):

    -8.0051  -7.8502  -7.8442  -7.7621  -7.7531  -3.9047   1.2532   4.2162
     5.3771

          k = 0.1875 0.4375 0.6875 (  3175 PWs)   bands (ev):

    -8.0185  -7.8458  -7.8330  -7.7666  -7.7515  -3.6720   1.0343   3.8359
     4.9349

          k = 0.1875 0.4375 0.8125 (  3177 PWs)   bands (ev):

    -8.0287  -7.8412  -7.8230  -7.7710  -7.7513  -3.4865   0.9301   3.5045
     4.5728

          k = 0.1875 0.5625 0.5625 (  3175 PWs)   bands (ev):

    -8.0127  -7.8470  -7.8409  -7.7593  -7.7562  -3.7384   1.0330   3.9179
     5.2951

          k = 0.1875 0.5625 0.6875 (  3176 PWs)   bands (ev):

    -8.0214  -7.8441  -7.8322  -7.7653  -7.7530  -3.5916   0.9316   3.6702
     4.9751

          k = 0.1875 0.6875 0.6875 (  3180 PWs)   bands (ev):

    -8.0275  -7.8386  -7.8283  -7.7710  -7.7498  -3.5351   0.9219   3.5618
     4.8783

          k = 0.3125 0.3125 0.3125 (  3173 PWs)   bands (ev):

    -7.9709  -7.8614  -7.8614  -7.7572  -7.7572  -4.4431   2.0346   5.7901
     5.7901

          k = 0.3125 0.3125 0.4375 (  3173 PWs)   bands (ev):

    -7.9861  -7.8580  -7.8554  -7.7594  -7.7528  -4.2249   1.5810   5.4861
     5.5304

          k = 0.3125 0.3125 0.5625 (  3176 PWs)   bands (ev):

    -8.0024  -7.8521  -7.8470  -7.7629  -7.7498  -3.9755   1.2328   4.8273
     5.2687

          k = 0.3125 0.3125 0.6875 (  3179 PWs)   bands (ev):

    -8.0169  -7.8450  -7.8374  -7.7671  -7.7489  -3.7313   1.0141   4.1383
     5.0425

          k = 0.3125 0.4375 0.4375 (  3185 PWs)   bands (ev):

    -7.9955  -7.8552  -7.8546  -7.7561  -7.7530  -4.0548   1.2126   5.2296
     5.6527

          k = 0.3125 0.4375 0.5625 (  3178 PWs)   bands (ev):

    -8.0056  -7.8523  -7.8488  -7.7577  -7.7517  -3.8726   0.9726   4.8030
     5.4140

          k = 0.3125 0.4375 0.6875 (  3176 PWs)   bands (ev):

    -8.0147  -7.8483  -7.8404  -7.7614  -7.7515  -3.7096   0.8853   4.2321
     5.1525

          k = 0.3125 0.5625 0.5625 (  3177 PWs)   bands (ev):

    -8.0100  -7.8504  -7.8469  -7.7564  -7.7531  -3.7779   0.8516   4.5732
     5.3763

          k = 0.4375 0.4375 0.4375 (  3172 PWs)   bands (ev):

    -8.0009  -7.8549  -7.8549  -7.7527  -7.7527  -3.9481   0.9306   5.5743
     5.5743

          k = 0.4375 0.4375 0.5625 (  3170 PWs)   bands (ev):

    -8.0060  -7.8535  -7.8521  -7.7539  -7.7516  -3.8493   0.8049   5.2404
     5.4763

     highest occupied level (ev):     6.4785

!    total energy              =    -163.07421018 Ry
     estimated scf accuracy    <       0.00000041 Ry

     The total energy is the sum of the following terms:
     one-electron contribution =     -63.89572467 Ry
     hartree contribution      =      44.67230089 Ry
     xc contribution           =     -56.90447537 Ry
     ewald contribution        =     -86.94631103 Ry

     convergence has been achieved in   7 iterations

     Forces acting on atoms (cartesian axes, Ry/au):

     atom    1 type  1   force =    -0.00000000   -0.00000000   -0.00000000
     atom    2 type  2   force =     0.00000000    0.00000000    0.00000000

     Total force =     0.000000     Total SCF correction =     0.000000


     Computing stress (Cartesian axis) and pressure

          total   stress  (Ry/bohr**3)                   (kbar)     P=       39.86
   0.00027099   0.00000000   0.00000000           39.86        0.00        0.00
   0.00000000   0.00027099  -0.00000000            0.00       39.86       -0.00
   0.00000000   0.00000000   0.00027099            0.00        0.00       39.86


     Writing all to output data dir /home/nico-sachs/source/q-e/tempdir/inas.save/ :
     XML data file, charge density, pseudopotentials, collected wavefunctions

     init_run     :      3.19s CPU      3.26s WALL (       1 calls)
     electrons    :     48.18s CPU     48.99s WALL (       1 calls)
     forces       :      0.68s CPU      0.71s WALL (       1 calls)
     stress       :      3.24s CPU      3.33s WALL (       1 calls)

     Called by init_run:
     wfcinit      :      2.14s CPU      2.16s WALL (       1 calls)
     potinit      :      0.08s CPU      0.08s WALL (       1 calls)
     hinit0       :      0.85s CPU      0.85s WALL (       1 calls)

     Called by electrons:
     c_bands      :     42.54s CPU     42.89s WALL (       8 calls)
     sum_band     :      4.84s CPU      5.13s WALL (       8 calls)
     v_of_rho     :      0.22s CPU      0.23s WALL (       8 calls)
     newd         :      0.65s CPU      0.87s WALL (       8 calls)
     mix_rho      :      0.02s CPU      0.02s WALL (       8 calls)

     Called by c_bands:
     init_us_2    :      1.32s CPU      1.34s WALL (    1140 calls)
     ccgdiagg     :     35.08s CPU     35.39s WALL (     480 calls)
     wfcrot       :      8.72s CPU      8.76s WALL (     420 calls)

     Called by *cgdiagg:
     h_psi        :     29.94s CPU     30.16s WALL (   13587 calls)
     s_psi        :      6.30s CPU      6.36s WALL (   26754 calls)

     Called by h_psi:
     h_psi:calbec :      4.53s CPU      4.55s WALL (   13587 calls)
     vloc_psi     :     21.64s CPU     21.82s WALL (   13587 calls)
                                        0.00s GPU  (   13587 calls)
     add_vuspsi   :      3.58s CPU      3.60s WALL (   13587 calls)
     hs_1psi      :     25.91s CPU     26.12s WALL (   13167 calls)
     s_1psi       :      6.53s CPU      6.60s WALL (   13167 calls)

     General routines
     calbec       :     10.80s CPU     10.87s WALL (   28254 calls)
     fft          :      0.31s CPU      0.31s WALL (     114 calls)
     ffts         :      0.01s CPU      0.01s WALL (       8 calls)
     fftw         :     21.33s CPU     21.49s WALL (   38694 calls)

     Parallel routines

     PWSCF        :     55.56s CPU     56.63s WALL


   This run was terminated on:  22:49:28  26Jan2026            

=------------------------------------------------------------------------------=
   JOB DONE.
=------------------------------------------------------------------------------=
