
     Program PWSCF v.7.5 starts on 27Jan2026 at 14: 9:48 

     This program is part of the open-source Quantum ESPRESSO suite
     for quantum simulation of materials; please cite
         "P. Giannozzi et al., J. Phys.:Condens. Matter 21 395502 (2009);
         "P. Giannozzi et al., J. Phys.:Condens. Matter 29 465901 (2017);
         "P. Giannozzi et al., J. Chem. Phys. 152 154105 (2020);
          URL http://www.quantum-espresso.org", 
     in publications or presentations arising from this work. More details at
     http://www.quantum-espresso.org/quote

     Parallel version (MPI), running on     4 processors

     MPI processes distributed on     1 nodes
     23552 MiB available memory on the printing compute node when the environment starts

     Waiting for input...
     Reading input from standard input

     Current dimensions of program PWSCF are:
     Max number of different atomic species (ntypx) = 10
     Max number of k-points (npk) =  40000
     Max angular momentum in pseudopotentials (lmaxx) =  4
     file Ga.pbe-dn-kjpaw_psl.1.0.0.UPF: wavefunction(s)  4S renormalized
     Message from routine set_cutoff:
     ecutrho < 4*ecutwfc, are you sure?

     R & G space division:  proc/nbgrp/npool/nimage =       4
     Subspace diagonalization in iterative solution of the eigenvalue problem:
     a serial algorithm will be used


     Parallelization info
     --------------------
     sticks:   dense  smooth     PW     G-vecs:    dense   smooth      PW
     Min         211     211     63                 7938     7938    1397
     Max         212     212     64                 7940     7940    1406
     Sum         847     847    253                31755    31755    5599

     Using Slab Decomposition



     bravais-lattice index     =            4
     lattice parameter (alat)  =       6.0263  a.u.
     unit-cell volume          =     308.1662 (a.u.)^3
     number of atoms/cell      =            4
     number of atomic types    =            2
     number of electrons       =        36.00
     number of Kohn-Sham states=           18
     kinetic-energy cutoff     =      90.0000  Ry
     charge density cutoff     =     333.3333  Ry
     scf convergence threshold =      1.0E-06
     mixing beta               =       0.7000
     number of iterations used =            8  plain     mixing
     Exchange-correlation= PBE
                           (   1   4   3   4   0   0   0)

     celldm(1)=   6.026337  celldm(2)=   0.000000  celldm(3)=   1.625902
     celldm(4)=   0.000000  celldm(5)=   0.000000  celldm(6)=   0.000000

     crystal axes: (cart. coord. in units of alat)
               a(1) = (   1.000000   0.000000   0.000000 )  
               a(2) = (  -0.500000   0.866025   0.000000 )  
               a(3) = (   0.000000   0.000000   1.625902 )  

     reciprocal axes: (cart. coord. in units 2 pi/alat)
               b(1) = (  1.000000  0.577350 -0.000000 )  
               b(2) = (  0.000000  1.154701  0.000000 )  
               b(3) = (  0.000000 -0.000000  0.615043 )  


     PseudoPot. # 1 for Ga read from file:
     /home/nico-sachs/source/q-e/SSSP_1.3.0_PBE_efficiency/Ga.pbe-dn-kjpaw_psl.1.0.0.UPF
     MD5 check sum: a27b4342b1af7e5f338de752e9ed7044
     Pseudo is Projector augmented-wave + core cor, Zval = 13.0
     Generated using "atomic" code by A. Dal Corso  v.5.1
     Shape of augmentation charge: PSQ
     Using radial grid of 1205 points,  6 beta functions with: 
                l(1) =   0
                l(2) =   0
                l(3) =   1
                l(4) =   1
                l(5) =   2
                l(6) =   2
     Q(r) pseudized with 0 coefficients 


     PseudoPot. # 2 for N  read from file:
     /home/nico-sachs/source/q-e/SSSP_1.3.0_PBE_efficiency/N.pbe-n-radius_5.UPF
     MD5 check sum: 16739722b17309cd8fe442a2ace49922
     Pseudo is Ultrasoft + core correction, Zval =  5.0
     Generated using "atomic" code by A. Dal Corso  v.5.1
     Using radial grid of 1085 points,  4 beta functions with: 
                l(1) =   0
                l(2) =   0
                l(3) =   1
                l(4) =   1
     Q(r) pseudized with 0 coefficients 


     atomic species   valence    mass     pseudopotential
     Ga               13.00    69.72300     Ga( 1.00)
     N                 5.00    14.00700     N ( 1.00)

     12 Sym. Ops. (no inversion) found ( 6 have fractional translation)



   Cartesian axes

     site n.     atom                  positions (alat units)
         1        Ga     tau(   1) = (  -0.0000000   0.5773503   0.0000000  )
         2        Ga     tau(   2) = (   0.5000000   0.2886751   0.8129508  )
         3        N      tau(   3) = (  -0.0000000   0.5773503   0.6097131  )
         4        N      tau(   4) = (   0.5000000   0.2886751   1.4226638  )

     number of k points=    21
                       cart. coord. in units 2pi/alat
        k(    1) = (   0.0000000   0.0000000   0.0000000), wk =   0.0138889
        k(    2) = (   0.0000000   0.0000000   0.1537608), wk =   0.0277778
        k(    3) = (   0.0000000   0.0000000  -0.3075217), wk =   0.0138889
        k(    4) = (   0.0000000   0.1924501   0.0000000), wk =   0.0833333
        k(    5) = (   0.0000000   0.1924501   0.1537608), wk =   0.1666667
        k(    6) = (   0.0000000   0.1924501  -0.3075217), wk =   0.0833333
        k(    7) = (   0.0000000   0.3849002   0.0000000), wk =   0.0833333
        k(    8) = (   0.0000000   0.3849002   0.1537608), wk =   0.1666667
        k(    9) = (   0.0000000   0.3849002  -0.3075217), wk =   0.0833333
        k(   10) = (   0.0000000  -0.5773503   0.0000000), wk =   0.0416667
        k(   11) = (   0.0000000  -0.5773503   0.1537608), wk =   0.0833333
        k(   12) = (   0.0000000  -0.5773503  -0.3075217), wk =   0.0416667
        k(   13) = (   0.1666667   0.2886751   0.0000000), wk =   0.0833333
        k(   14) = (   0.1666667   0.2886751   0.1537608), wk =   0.1666667
        k(   15) = (   0.1666667   0.2886751  -0.3075217), wk =   0.0833333
        k(   16) = (   0.1666667   0.4811252   0.0000000), wk =   0.1666667
        k(   17) = (   0.1666667   0.4811252   0.1537608), wk =   0.3333333
        k(   18) = (   0.1666667   0.4811252  -0.3075217), wk =   0.1666667
        k(   19) = (   0.3333333   0.5773503   0.0000000), wk =   0.0277778
        k(   20) = (   0.3333333   0.5773503   0.1537608), wk =   0.0555556
        k(   21) = (   0.3333333   0.5773503  -0.3075217), wk =   0.0277778

     Dense  grid:    31755 G-vectors     FFT dimensions: (  36,  36,  60)

     Estimated max dynamical RAM per process >      39.75 MB

     Estimated total dynamical RAM >     158.98 MB

     Initial potential from superposition of free atoms

     starting charge      35.9941, renormalised to      36.0000
     Starting wfcs are   26 randomized atomic wfcs
     Checking if some PAW data can be deallocated... 

     total cpu time spent up to now is        1.5 secs

     Self-consistent Calculation

     iteration #  1     ecut=    90.00 Ry     beta= 0.70
     CG style diagonalization
     ethr =  1.00E-02,  avg # of iterations =  2.0

     total cpu time spent up to now is        3.0 secs

     total energy              =    -595.58043684 Ry
     estimated scf accuracy    <       1.11376346 Ry

     iteration #  2     ecut=    90.00 Ry     beta= 0.70
     CG style diagonalization
     ethr =  3.09E-03,  avg # of iterations =  4.8

     total cpu time spent up to now is        5.9 secs

     total energy              =    -596.02826227 Ry
     estimated scf accuracy    <       1.07648965 Ry

     iteration #  3     ecut=    90.00 Ry     beta= 0.70
     CG style diagonalization
     ethr =  2.99E-03,  avg # of iterations =  3.8

     total cpu time spent up to now is        8.4 secs

     total energy              =    -596.21462342 Ry
     estimated scf accuracy    <       0.00934511 Ry

     iteration #  4     ecut=    90.00 Ry     beta= 0.70
     CG style diagonalization
     c_bands:  1 eigenvalues not converged
     c_bands:  1 eigenvalues not converged
     c_bands:  1 eigenvalues not converged
     c_bands:  2 eigenvalues not converged
     c_bands:  1 eigenvalues not converged
     c_bands:  1 eigenvalues not converged
     c_bands:  1 eigenvalues not converged
     c_bands:  1 eigenvalues not converged
     c_bands:  1 eigenvalues not converged
     c_bands:  1 eigenvalues not converged
     ethr =  2.60E-05,  avg # of iterations =  9.9

     total cpu time spent up to now is       14.1 secs

     total energy              =    -596.35949449 Ry
     estimated scf accuracy    <       0.03313129 Ry

     iteration #  5     ecut=    90.00 Ry     beta= 0.70
     CG style diagonalization
     ethr =  2.60E-05,  avg # of iterations =  4.1

     total cpu time spent up to now is       16.6 secs

     total energy              =    -596.36448164 Ry
     estimated scf accuracy    <       0.05026323 Ry

     iteration #  6     ecut=    90.00 Ry     beta= 0.70
     CG style diagonalization
     ethr =  2.60E-05,  avg # of iterations =  5.0

     total cpu time spent up to now is       19.6 secs

     total energy              =    -596.36703698 Ry
     estimated scf accuracy    <       0.11945142 Ry

     iteration #  7     ecut=    90.00 Ry     beta= 0.70
     CG style diagonalization
     ethr =  2.60E-05,  avg # of iterations =  3.8

     total cpu time spent up to now is       22.0 secs

     total energy              =    -596.36878524 Ry
     estimated scf accuracy    <       0.02308011 Ry

     iteration #  8     ecut=    90.00 Ry     beta= 0.70
     CG style diagonalization
     ethr =  2.60E-05,  avg # of iterations =  3.1

     total cpu time spent up to now is       24.0 secs

     total energy              =    -596.37103482 Ry
     estimated scf accuracy    <       0.01936577 Ry

     iteration #  9     ecut=    90.00 Ry     beta= 0.70
     CG style diagonalization
     ethr =  2.60E-05,  avg # of iterations =  3.0

     total cpu time spent up to now is       25.9 secs

     total energy              =    -596.36705055 Ry
     estimated scf accuracy    <       0.03538686 Ry

     iteration # 10     ecut=    90.00 Ry     beta= 0.70
     CG style diagonalization
     ethr =  2.60E-05,  avg # of iterations =  3.4

     total cpu time spent up to now is       28.0 secs

     total energy              =    -596.36868353 Ry
     estimated scf accuracy    <       0.00003385 Ry

     iteration # 11     ecut=    90.00 Ry     beta= 0.70
     CG style diagonalization
     c_bands:  2 eigenvalues not converged
     c_bands:  3 eigenvalues not converged
     c_bands:  4 eigenvalues not converged
     c_bands:  4 eigenvalues not converged
     c_bands:  2 eigenvalues not converged
     c_bands:  3 eigenvalues not converged
     c_bands:  3 eigenvalues not converged
     c_bands:  2 eigenvalues not converged
     c_bands:  5 eigenvalues not converged
     c_bands:  4 eigenvalues not converged
     c_bands:  3 eigenvalues not converged
     c_bands:  4 eigenvalues not converged
     c_bands:  4 eigenvalues not converged
     c_bands:  2 eigenvalues not converged
     c_bands:  3 eigenvalues not converged
     c_bands:  1 eigenvalues not converged
     c_bands:  3 eigenvalues not converged
     ethr =  9.40E-08,  avg # of iterations = 17.2

     total cpu time spent up to now is       37.6 secs

     total energy              =    -596.36918434 Ry
     estimated scf accuracy    <       0.01560999 Ry

     iteration # 12     ecut=    90.00 Ry     beta= 0.70
     CG style diagonalization
     c_bands:  2 eigenvalues not converged
     c_bands:  1 eigenvalues not converged
     c_bands:  1 eigenvalues not converged
     c_bands:  1 eigenvalues not converged
     c_bands:  1 eigenvalues not converged
     c_bands:  1 eigenvalues not converged
     c_bands:  1 eigenvalues not converged
     ethr =  9.40E-08,  avg # of iterations = 10.0

     total cpu time spent up to now is       43.4 secs

     total energy              =    -596.36894997 Ry
     estimated scf accuracy    <       0.00265183 Ry

     iteration # 13     ecut=    90.00 Ry     beta= 0.70
     CG style diagonalization
     c_bands:  1 eigenvalues not converged
     c_bands:  1 eigenvalues not converged
     c_bands:  1 eigenvalues not converged
     c_bands:  1 eigenvalues not converged
     c_bands:  5 eigenvalues not converged
     c_bands:  4 eigenvalues not converged
     c_bands:  3 eigenvalues not converged
     c_bands:  3 eigenvalues not converged
     c_bands:  2 eigenvalues not converged
     c_bands:  1 eigenvalues not converged
     c_bands:  2 eigenvalues not converged
     c_bands:  4 eigenvalues not converged
     c_bands:  1 eigenvalues not converged
     c_bands:  2 eigenvalues not converged
     c_bands:  1 eigenvalues not converged
     c_bands:  3 eigenvalues not converged
     c_bands:  1 eigenvalues not converged
     c_bands:  1 eigenvalues not converged
     c_bands:  2 eigenvalues not converged
     c_bands:  2 eigenvalues not converged
     ethr =  9.40E-08,  avg # of iterations = 14.2

     total cpu time spent up to now is       51.4 secs

     total energy              =    -596.36975040 Ry
     estimated scf accuracy    <       0.00157770 Ry

     iteration # 14     ecut=    90.00 Ry     beta= 0.70
     CG style diagonalization
     ethr =  9.40E-08,  avg # of iterations =  5.7

     total cpu time spent up to now is       55.0 secs

     total energy              =    -596.36966557 Ry
     estimated scf accuracy    <       0.00160389 Ry

     iteration # 15     ecut=    90.00 Ry     beta= 0.70
     CG style diagonalization
     ethr =  9.40E-08,  avg # of iterations =  4.2

     total cpu time spent up to now is       57.6 secs

     total energy              =    -596.36940172 Ry
     estimated scf accuracy    <       0.00142716 Ry

     iteration # 16     ecut=    90.00 Ry     beta= 0.70
     CG style diagonalization
     ethr =  9.40E-08,  avg # of iterations =  4.6

     total cpu time spent up to now is       60.4 secs

     total energy              =    -596.36923663 Ry
     estimated scf accuracy    <       0.00062553 Ry

     iteration # 17     ecut=    90.00 Ry     beta= 0.70
     CG style diagonalization
     ethr =  9.40E-08,  avg # of iterations =  7.6

     total cpu time spent up to now is       64.9 secs

     total energy              =    -596.36934702 Ry
     estimated scf accuracy    <       0.00003130 Ry

     iteration # 18     ecut=    90.00 Ry     beta= 0.70
     CG style diagonalization
     ethr =  8.70E-08,  avg # of iterations =  4.9

     total cpu time spent up to now is       67.9 secs

     total energy              =    -596.36937380 Ry
     estimated scf accuracy    <       0.00002429 Ry

     iteration # 19     ecut=    90.00 Ry     beta= 0.70
     CG style diagonalization
     ethr =  6.75E-08,  avg # of iterations =  4.0

     total cpu time spent up to now is       70.4 secs

     total energy              =    -596.36937208 Ry
     estimated scf accuracy    <       0.00001658 Ry

     iteration # 20     ecut=    90.00 Ry     beta= 0.70
     CG style diagonalization
     ethr =  4.61E-08,  avg # of iterations =  4.6

     total cpu time spent up to now is       73.2 secs

     total energy              =    -596.36937727 Ry
     estimated scf accuracy    <       0.00002175 Ry

     iteration # 21     ecut=    90.00 Ry     beta= 0.70
     CG style diagonalization
     ethr =  4.61E-08,  avg # of iterations =  3.5

     total cpu time spent up to now is       75.4 secs

     total energy              =    -596.36937824 Ry
     estimated scf accuracy    <       0.00000463 Ry

     iteration # 22     ecut=    90.00 Ry     beta= 0.70
     CG style diagonalization
     ethr =  1.29E-08,  avg # of iterations =  4.3

     total cpu time spent up to now is       78.1 secs

     End of self-consistent calculation

          k = 0.0000 0.0000 0.0000 (  4427 PWs)   bands (ev):

    -6.2590  -5.3503  -3.7581  -3.7372  -3.7372  -3.6753  -3.6753  -3.4893
    -3.4893  -3.3899  -3.3899  -2.1345   2.6384   8.6786   8.6786   9.6638
     9.7261   9.7261

          k = 0.0000 0.0000 0.1538 (  4422 PWs)   bands (ev):

    -6.0834  -5.4229  -3.7335  -3.7335  -3.7011  -3.6893  -3.6893  -3.4698
    -3.4698  -3.3999  -3.3999  -2.6863   3.6930   8.1708   8.8253   8.8253
     9.5660   9.5660

          k = 0.0000 0.0000-0.3075 (  4386 PWs)   bands (ev):

    -5.6976  -5.6976  -3.7164  -3.7164  -3.7164  -3.7164  -3.4303  -3.4303
    -3.4303  -3.4303  -3.4047  -3.4047   5.8632   5.8632   9.1888   9.1888
     9.1888   9.1888

          k = 0.0000 0.1925 0.0000 (  4448 PWs)   bands (ev):

    -6.0075  -5.2922  -3.7252  -3.7035  -3.6607  -3.6257  -3.6248  -3.5104
    -3.4880  -3.4262  -3.3844  -1.9500   3.0227   7.0024   8.0052   8.1717
     9.3766   9.4894

          k = 0.0000 0.1925 0.1538 (  4432 PWs)   bands (ev):

    -5.8567  -5.3416  -3.7158  -3.6957  -3.6670  -3.6398  -3.6013  -3.4730
    -3.4698  -3.4268  -3.3969  -2.4631   3.9348   7.1185   7.4489   8.3485
     9.0112   9.2777

          k = 0.0000 0.1925-0.3075 (  4420 PWs)   bands (ev):

    -5.5440  -5.5440  -3.6911  -3.6911  -3.6713  -3.6713  -3.5142  -3.5142
    -3.4306  -3.4306  -3.1651  -3.1651   5.6991   5.6991   8.0829   8.0829
     8.7958   8.7958

          k = 0.0000 0.3849 0.0000 (  4436 PWs)   bands (ev):

    -5.5471  -5.2139  -3.6879  -3.6687  -3.5908  -3.5277  -3.5258  -3.4919
    -3.4433  -3.3735  -3.0721  -1.5879   3.7562   4.8348   5.8329   7.3413
     8.4335   8.9910

          k = 0.0000 0.3849 0.1538 (  4440 PWs)   bands (ev):

    -5.4623  -5.2273  -3.6954  -3.6467  -3.6228  -3.5442  -3.5271  -3.4753
    -3.4361  -3.3874  -2.9556  -1.9435   3.7679   5.0293   6.0364   7.5543
     8.5355   8.7133

          k = 0.0000 0.3849-0.3075 (  4454 PWs)   bands (ev):

    -5.3074  -5.3074  -3.6792  -3.6792  -3.5939  -3.5938  -3.4933  -3.4933
    -3.4148  -3.4148  -2.5616  -2.5616   4.2521   4.2521   7.6317   7.6317
     8.1024   8.1024

          k = 0.0000-0.5774 0.0000 (  4474 PWs)   bands (ev):

    -5.3680  -5.1929  -3.6910  -3.6670  -3.5728  -3.5293  -3.4814  -3.4751
    -3.3995  -3.3646  -2.2505  -1.7112   3.2793   4.4587   5.4918   6.9796
     7.4894   8.7473

          k = 0.0000-0.5774 0.1538 (  4456 PWs)   bands (ev):

    -5.3169  -5.1931  -3.7035  -3.6380  -3.6153  -3.5323  -3.5034  -3.4349
    -3.3982  -3.3770  -2.1950  -1.8064   3.0118   3.8640   6.4148   7.2056
     8.0181   8.4458

          k = 0.0000-0.5774-0.3075 (  4452 PWs)   bands (ev):

    -5.2288  -5.2288  -3.6931  -3.6931  -3.5680  -3.5680  -3.4588  -3.4588
    -3.3922  -3.3922  -2.0237  -2.0237   3.1287   3.1287   7.7894   7.7894
     7.8155   7.8155

          k = 0.1667 0.2887 0.0000 (  4443 PWs)   bands (ev):

    -5.6511  -5.2291  -3.6925  -3.6699  -3.6014  -3.5774  -3.5293  -3.4684
    -3.4576  -3.4116  -3.2518  -1.6554   3.6599   5.6783   6.0556   7.3247
     8.7163   8.8013

          k = 0.1667 0.2887 0.1538 (  4445 PWs)   bands (ev):

    -5.5484  -5.2497  -3.6752  -3.6721  -3.6157  -3.6022  -3.5082  -3.5023
    -3.4348  -3.4188  -3.1444  -2.0748   4.0806   5.7188   6.2990   7.2867
     8.4077   8.7910

          k = 0.1667 0.2887-0.3075 (  4448 PWs)   bands (ev):

    -5.3556  -5.3556  -3.6551  -3.6551  -3.6278  -3.6278  -3.5241  -3.5241
    -3.4201  -3.4201  -2.7504  -2.7504   4.8877   4.8877   7.6061   7.6061
     7.9164   7.9164

          k = 0.1667 0.4811 0.0000 (  4446 PWs)   bands (ev):

    -5.3572  -5.1980  -3.7137  -3.6313  -3.5434  -3.5284  -3.5072  -3.4868
    -3.4252  -3.3912  -2.4139  -1.5027   3.7171   4.6718   5.5239   6.0981
     7.6982   7.9657

          k = 0.1667 0.4811 0.1538 (  4450 PWs)   bands (ev):

    -5.3071  -5.1953  -3.6834  -3.6484  -3.5942  -3.5301  -3.5082  -3.4659
    -3.4176  -3.4077  -2.3198  -1.6745   3.4523   4.2395   5.9658   6.7330
     7.5274   8.2189

          k = 0.1667 0.4811-0.3075 (  4450 PWs)   bands (ev):

    -5.2240  -5.2240  -3.6580  -3.6580  -3.5879  -3.5879  -3.4863  -3.4863
    -3.4102  -3.4102  -2.0380  -2.0380   3.5818   3.5818   6.6759   6.6759
     8.0607   8.0607

          k = 0.3333 0.5774 0.0000 (  4449 PWs)   bands (ev):

    -5.2339  -5.2339  -3.7427  -3.5357  -3.5357  -3.5174  -3.5036  -3.5036
    -3.4566  -3.4094  -1.7163  -1.7163   4.3955   4.3955   4.4461   6.7168
     6.7168   7.0343

          k = 0.3333 0.5774 0.1538 (  4449 PWs)   bands (ev):

    -5.2112  -5.2112  -3.7026  -3.5892  -3.5892  -3.5262  -3.4630  -3.4630
    -3.4611  -3.4452  -1.7106  -1.7106   3.9080   3.9080   4.7444   6.5288
     7.5195   7.5195

          k = 0.3333 0.5774-0.3075 (  4494 PWs)   bands (ev):

    -5.1880  -5.1880  -3.6216  -3.6216  -3.6037  -3.6037  -3.4684  -3.4684
    -3.4439  -3.4439  -1.7048  -1.7048   3.5644   3.5644   5.5442   5.5442
     8.2338   8.2338

     highest occupied level (ev):     9.7261

!    total energy              =    -596.36937988 Ry
     estimated scf accuracy    <       0.00000015 Ry

     The total energy is the sum of the following terms:
     one-electron contribution =    -181.38811634 Ry
     hartree contribution      =     130.16844615 Ry
     xc contribution           =     -87.88333065 Ry
     ewald contribution        =    -233.28276133 Ry
     one-center paw contrib.   =    -223.98361772 Ry

     convergence has been achieved in  22 iterations

     Forces acting on atoms (cartesian axes, Ry/au):

     atom    1 type  1   force =     0.00000000    0.00000000   -0.00481184
     atom    2 type  1   force =     0.00000000   -0.00000000   -0.00481184
     atom    3 type  2   force =     0.00000000    0.00000000    0.00481184
     atom    4 type  2   force =     0.00000000    0.00000000    0.00481184

     Total force =     0.009624     Total SCF correction =     0.000067


     Computing stress (Cartesian axis) and pressure

          total   stress  (Ry/bohr**3)                   (kbar)     P=       53.54
   0.00032529  -0.00000000   0.00000000           47.85       -0.00        0.00
  -0.00000000   0.00032529   0.00000000           -0.00       47.85        0.00
   0.00000000   0.00000000   0.00044127            0.00        0.00       64.91


     Writing all to output data dir /home/nico-sachs/source/q-e/tempdir/gan.save/ :
     XML data file, charge density, pseudopotentials, collected wavefunctions

     init_run     :      1.28s CPU      1.34s WALL (       1 calls)
     electrons    :     74.20s CPU     76.60s WALL (       1 calls)
     forces       :      0.29s CPU      0.29s WALL (       1 calls)
     stress       :      1.13s CPU      1.13s WALL (       1 calls)

     Called by init_run:
     wfcinit      :      0.59s CPU      0.61s WALL (       1 calls)
     potinit      :      0.26s CPU      0.29s WALL (       1 calls)
     hinit0       :      0.36s CPU      0.36s WALL (       1 calls)

     Called by electrons:
     c_bands      :     64.45s CPU     66.70s WALL (      22 calls)
     sum_band     :      3.79s CPU      3.92s WALL (      22 calls)
     v_of_rho     :      0.21s CPU      0.22s WALL (      23 calls)
     newd         :      0.70s CPU      0.72s WALL (      23 calls)
     PAW_pot      :      5.25s CPU      5.28s WALL (      23 calls)
     mix_rho      :      0.05s CPU      0.05s WALL (      22 calls)

     Called by c_bands:
     init_us_2    :      0.47s CPU      0.48s WALL (     987 calls)
     ccgdiagg     :     56.26s CPU     58.22s WALL (     466 calls)
     wfcrot       :      8.40s CPU      8.69s WALL (     466 calls)

     Called by *cgdiagg:
     h_psi        :     36.80s CPU     38.25s WALL (   40567 calls)
     s_psi        :     11.70s CPU     12.07s WALL (   80668 calls)

     Called by h_psi:
     h_psi:calbec :      9.30s CPU      9.67s WALL (   40567 calls)
     vloc_psi     :     20.56s CPU     21.40s WALL (   40567 calls)
                                        0.00s GPU  (   40567 calls)
     add_vuspsi   :      6.55s CPU      6.77s WALL (   40567 calls)
     hs_1psi      :     36.65s CPU     38.05s WALL (   40101 calls)
     s_1psi       :     13.22s CPU     13.60s WALL (   40101 calls)

     General routines
     calbec       :     18.84s CPU     19.49s WALL (   81487 calls)
     fft          :      0.29s CPU      0.30s WALL (     278 calls)
     ffts         :      0.01s CPU      0.01s WALL (      22 calls)
     fftw         :     19.58s CPU     20.41s WALL (  105630 calls)

     Parallel routines

     PWSCF        :   1m17.08s CPU   1m19.59s WALL


   This run was terminated on:  14:11: 8  27Jan2026            

=------------------------------------------------------------------------------=
   JOB DONE.
=------------------------------------------------------------------------------=
