
     Program PWSCF v.7.5 starts on 27Jan2026 at 15:34: 4 

     This program is part of the open-source Quantum ESPRESSO suite
     for quantum simulation of materials; please cite
         "P. Giannozzi et al., J. Phys.:Condens. Matter 21 395502 (2009);
         "P. Giannozzi et al., J. Phys.:Condens. Matter 29 465901 (2017);
         "P. Giannozzi et al., J. Chem. Phys. 152 154105 (2020);
          URL http://www.quantum-espresso.org", 
     in publications or presentations arising from this work. More details at
     http://www.quantum-espresso.org/quote

     Parallel version (MPI), running on     4 processors

     MPI processes distributed on     1 nodes
     23238 MiB available memory on the printing compute node when the environment starts

     Waiting for input...
     Reading input from standard input

     Current dimensions of program PWSCF are:
     Max number of different atomic species (ntypx) = 10
     Max number of k-points (npk) =  40000
     Max angular momentum in pseudopotentials (lmaxx) =  4
     file Ga.pbe-dn-kjpaw_psl.1.0.0.UPF: wavefunction(s)  4S renormalized

     R & G space division:  proc/nbgrp/npool/nimage =       4
     Subspace diagonalization in iterative solution of the eigenvalue problem:
     a serial algorithm will be used


     Parallelization info
     --------------------
     sticks:   dense  smooth     PW     G-vecs:    dense   smooth      PW
     Min         250     108     34                10432     2972     511
     Max         251     109     35                10439     2979     512
     Sum        1003     433    139                41745    11897    2045

     Using Slab Decomposition



     bravais-lattice index     =            4
     lattice parameter (alat)  =       6.0263  a.u.
     unit-cell volume          =     308.1662 (a.u.)^3
     number of atoms/cell      =            4
     number of atomic types    =            2
     number of electrons       =        36.00
     number of Kohn-Sham states=           18
     kinetic-energy cutoff     =      43.3333  Ry
     charge density cutoff     =     400.0000  Ry
     scf convergence threshold =      1.0E-06
     mixing beta               =       0.7000
     number of iterations used =            8  plain     mixing
     Exchange-correlation= PBE
                           (   1   4   3   4   0   0   0)

     celldm(1)=   6.026337  celldm(2)=   0.000000  celldm(3)=   1.625902
     celldm(4)=   0.000000  celldm(5)=   0.000000  celldm(6)=   0.000000

     crystal axes: (cart. coord. in units of alat)
               a(1) = (   1.000000   0.000000   0.000000 )  
               a(2) = (  -0.500000   0.866025   0.000000 )  
               a(3) = (   0.000000   0.000000   1.625902 )  

     reciprocal axes: (cart. coord. in units 2 pi/alat)
               b(1) = (  1.000000  0.577350 -0.000000 )  
               b(2) = (  0.000000  1.154701  0.000000 )  
               b(3) = (  0.000000 -0.000000  0.615043 )  


     PseudoPot. # 1 for Ga read from file:
     /home/nico-sachs/source/q-e/SSSP_1.3.0_PBE_efficiency/Ga.pbe-dn-kjpaw_psl.1.0.0.UPF
     MD5 check sum: a27b4342b1af7e5f338de752e9ed7044
     Pseudo is Projector augmented-wave + core cor, Zval = 13.0
     Generated using "atomic" code by A. Dal Corso  v.5.1
     Shape of augmentation charge: PSQ
     Using radial grid of 1205 points,  6 beta functions with: 
                l(1) =   0
                l(2) =   0
                l(3) =   1
                l(4) =   1
                l(5) =   2
                l(6) =   2
     Q(r) pseudized with 0 coefficients 


     PseudoPot. # 2 for N  read from file:
     /home/nico-sachs/source/q-e/SSSP_1.3.0_PBE_efficiency/N.pbe-n-radius_5.UPF
     MD5 check sum: 16739722b17309cd8fe442a2ace49922
     Pseudo is Ultrasoft + core correction, Zval =  5.0
     Generated using "atomic" code by A. Dal Corso  v.5.1
     Using radial grid of 1085 points,  4 beta functions with: 
                l(1) =   0
                l(2) =   0
                l(3) =   1
                l(4) =   1
     Q(r) pseudized with 0 coefficients 


     atomic species   valence    mass     pseudopotential
     Ga               13.00    69.72300     Ga( 1.00)
     N                 5.00    14.00700     N ( 1.00)

     12 Sym. Ops. (no inversion) found ( 6 have fractional translation)



   Cartesian axes

     site n.     atom                  positions (alat units)
         1        Ga     tau(   1) = (  -0.0000000   0.5773503   0.0000000  )
         2        Ga     tau(   2) = (   0.5000000   0.2886751   0.8129508  )
         3        N      tau(   3) = (  -0.0000000   0.5773503   0.6097131  )
         4        N      tau(   4) = (   0.5000000   0.2886751   1.4226638  )

     number of k points=    21
                       cart. coord. in units 2pi/alat
        k(    1) = (   0.0000000   0.0000000   0.0000000), wk =   0.0138889
        k(    2) = (   0.0000000   0.0000000   0.1537608), wk =   0.0277778
        k(    3) = (   0.0000000   0.0000000  -0.3075217), wk =   0.0138889
        k(    4) = (   0.0000000   0.1924501   0.0000000), wk =   0.0833333
        k(    5) = (   0.0000000   0.1924501   0.1537608), wk =   0.1666667
        k(    6) = (   0.0000000   0.1924501  -0.3075217), wk =   0.0833333
        k(    7) = (   0.0000000   0.3849002   0.0000000), wk =   0.0833333
        k(    8) = (   0.0000000   0.3849002   0.1537608), wk =   0.1666667
        k(    9) = (   0.0000000   0.3849002  -0.3075217), wk =   0.0833333
        k(   10) = (   0.0000000  -0.5773503   0.0000000), wk =   0.0416667
        k(   11) = (   0.0000000  -0.5773503   0.1537608), wk =   0.0833333
        k(   12) = (   0.0000000  -0.5773503  -0.3075217), wk =   0.0416667
        k(   13) = (   0.1666667   0.2886751   0.0000000), wk =   0.0833333
        k(   14) = (   0.1666667   0.2886751   0.1537608), wk =   0.1666667
        k(   15) = (   0.1666667   0.2886751  -0.3075217), wk =   0.0833333
        k(   16) = (   0.1666667   0.4811252   0.0000000), wk =   0.1666667
        k(   17) = (   0.1666667   0.4811252   0.1537608), wk =   0.3333333
        k(   18) = (   0.1666667   0.4811252  -0.3075217), wk =   0.1666667
        k(   19) = (   0.3333333   0.5773503   0.0000000), wk =   0.0277778
        k(   20) = (   0.3333333   0.5773503   0.1537608), wk =   0.0555556
        k(   21) = (   0.3333333   0.5773503  -0.3075217), wk =   0.0277778

     Dense  grid:    41745 G-vectors     FFT dimensions: (  40,  40,  64)

     Smooth grid:    11897 G-vectors     FFT dimensions: (  25,  25,  48)

     Estimated max dynamical RAM per process >      44.12 MB

     Estimated total dynamical RAM >     176.49 MB

     Initial potential from superposition of free atoms

     starting charge      35.9941, renormalised to      36.0000
     Starting wfcs are   26 randomized atomic wfcs
     Checking if some PAW data can be deallocated... 

     total cpu time spent up to now is        1.2 secs

     Self-consistent Calculation

     iteration #  1     ecut=    43.33 Ry     beta= 0.70
     CG style diagonalization
     ethr =  1.00E-02,  avg # of iterations =  2.0

     total cpu time spent up to now is        1.8 secs

     total energy              =    -595.58396604 Ry
     estimated scf accuracy    <       1.10321938 Ry

     iteration #  2     ecut=    43.33 Ry     beta= 0.70
     CG style diagonalization
     ethr =  3.06E-03,  avg # of iterations =  4.6

     total cpu time spent up to now is        2.9 secs

     total energy              =    -595.97758039 Ry
     estimated scf accuracy    <       1.20813858 Ry

     iteration #  3     ecut=    43.33 Ry     beta= 0.70
     CG style diagonalization
     ethr =  3.06E-03,  avg # of iterations =  3.7

     total cpu time spent up to now is        3.8 secs

     total energy              =    -596.21719715 Ry
     estimated scf accuracy    <       0.00758221 Ry

     iteration #  4     ecut=    43.33 Ry     beta= 0.70
     CG style diagonalization
     c_bands:  1 eigenvalues not converged
     c_bands:  1 eigenvalues not converged
     c_bands:  1 eigenvalues not converged
     c_bands:  1 eigenvalues not converged
     c_bands:  1 eigenvalues not converged
     c_bands:  1 eigenvalues not converged
     ethr =  2.11E-05,  avg # of iterations =  9.7

     total cpu time spent up to now is        5.8 secs

     total energy              =    -596.33680304 Ry
     estimated scf accuracy    <       0.02167640 Ry

     iteration #  5     ecut=    43.33 Ry     beta= 0.70
     CG style diagonalization
     ethr =  2.11E-05,  avg # of iterations =  3.1

     total cpu time spent up to now is        6.6 secs

     total energy              =    -596.33731779 Ry
     estimated scf accuracy    <       0.03394625 Ry

     iteration #  6     ecut=    43.33 Ry     beta= 0.70
     CG style diagonalization
     ethr =  2.11E-05,  avg # of iterations =  4.5

     total cpu time spent up to now is        7.7 secs

     total energy              =    -596.33907215 Ry
     estimated scf accuracy    <       0.07036701 Ry

     iteration #  7     ecut=    43.33 Ry     beta= 0.70
     CG style diagonalization
     ethr =  2.11E-05,  avg # of iterations =  3.3

     total cpu time spent up to now is        8.5 secs

     total energy              =    -596.33985435 Ry
     estimated scf accuracy    <       0.02358014 Ry

     iteration #  8     ecut=    43.33 Ry     beta= 0.70
     CG style diagonalization
     ethr =  2.11E-05,  avg # of iterations =  3.0

     total cpu time spent up to now is        9.3 secs

     total energy              =    -596.33896328 Ry
     estimated scf accuracy    <       0.01517448 Ry

     iteration #  9     ecut=    43.33 Ry     beta= 0.70
     CG style diagonalization
     ethr =  2.11E-05,  avg # of iterations =  3.0

     total cpu time spent up to now is       10.1 secs

     total energy              =    -596.33894478 Ry
     estimated scf accuracy    <       0.00220784 Ry

     iteration # 10     ecut=    43.33 Ry     beta= 0.70
     CG style diagonalization
     ethr =  6.13E-06,  avg # of iterations =  3.2

     total cpu time spent up to now is       10.9 secs

     total energy              =    -596.33937599 Ry
     estimated scf accuracy    <       0.00127797 Ry

     iteration # 11     ecut=    43.33 Ry     beta= 0.70
     CG style diagonalization
     ethr =  3.55E-06,  avg # of iterations =  3.3

     total cpu time spent up to now is       11.8 secs

     total energy              =    -596.33911099 Ry
     estimated scf accuracy    <       0.00341784 Ry

     iteration # 12     ecut=    43.33 Ry     beta= 0.70
     CG style diagonalization
     ethr =  3.55E-06,  avg # of iterations =  3.8

     total cpu time spent up to now is       12.8 secs

     total energy              =    -596.33936202 Ry
     estimated scf accuracy    <       0.00012856 Ry

     iteration # 13     ecut=    43.33 Ry     beta= 0.70
     CG style diagonalization
     ethr =  3.57E-07,  avg # of iterations =  7.9

     total cpu time spent up to now is       14.4 secs

     total energy              =    -596.33978801 Ry
     estimated scf accuracy    <       0.00040149 Ry

     iteration # 14     ecut=    43.33 Ry     beta= 0.70
     CG style diagonalization
     ethr =  3.57E-07,  avg # of iterations =  4.0

     total cpu time spent up to now is       15.4 secs

     total energy              =    -596.33978996 Ry
     estimated scf accuracy    <       0.00043409 Ry

     iteration # 15     ecut=    43.33 Ry     beta= 0.70
     CG style diagonalization
     ethr =  3.57E-07,  avg # of iterations =  3.1

     total cpu time spent up to now is       16.2 secs

     total energy              =    -596.33975290 Ry
     estimated scf accuracy    <       0.00028208 Ry

     iteration # 16     ecut=    43.33 Ry     beta= 0.70
     CG style diagonalization
     ethr =  3.57E-07,  avg # of iterations =  3.2

     total cpu time spent up to now is       17.1 secs

     total energy              =    -596.33977036 Ry
     estimated scf accuracy    <       0.00004605 Ry

     iteration # 17     ecut=    43.33 Ry     beta= 0.70
     CG style diagonalization
     ethr =  1.28E-07,  avg # of iterations =  4.6

     total cpu time spent up to now is       18.4 secs

     total energy              =    -596.33978887 Ry
     estimated scf accuracy    <       0.00007666 Ry

     iteration # 18     ecut=    43.33 Ry     beta= 0.70
     CG style diagonalization
     ethr =  1.28E-07,  avg # of iterations =  3.2

     total cpu time spent up to now is       19.3 secs

     total energy              =    -596.33978657 Ry
     estimated scf accuracy    <       0.00005178 Ry

     iteration # 19     ecut=    43.33 Ry     beta= 0.70
     CG style diagonalization
     ethr =  1.28E-07,  avg # of iterations =  3.3

     total cpu time spent up to now is       20.1 secs

     total energy              =    -596.33979064 Ry
     estimated scf accuracy    <       0.00002630 Ry

     iteration # 20     ecut=    43.33 Ry     beta= 0.70
     CG style diagonalization
     ethr =  7.31E-08,  avg # of iterations =  4.7

     total cpu time spent up to now is       21.2 secs

     total energy              =    -596.33980736 Ry
     estimated scf accuracy    <       0.00000740 Ry

     iteration # 21     ecut=    43.33 Ry     beta= 0.70
     CG style diagonalization
     ethr =  2.06E-08,  avg # of iterations =  6.8

     total cpu time spent up to now is       22.6 secs

     total energy              =    -596.33980045 Ry
     estimated scf accuracy    <       0.00002633 Ry

     iteration # 22     ecut=    43.33 Ry     beta= 0.70
     CG style diagonalization
     ethr =  2.06E-08,  avg # of iterations =  4.5

     total cpu time spent up to now is       23.7 secs

     total energy              =    -596.33980351 Ry
     estimated scf accuracy    <       0.00000525 Ry

     iteration # 23     ecut=    43.33 Ry     beta= 0.70
     CG style diagonalization
     ethr =  1.46E-08,  avg # of iterations =  3.6

     total cpu time spent up to now is       24.6 secs

     total energy              =    -596.33980422 Ry
     estimated scf accuracy    <       0.00000166 Ry

     iteration # 24     ecut=    43.33 Ry     beta= 0.70
     CG style diagonalization
     ethr =  4.61E-09,  avg # of iterations =  5.2

     total cpu time spent up to now is       25.8 secs

     End of self-consistent calculation

          k = 0.0000 0.0000 0.0000 (  1473 PWs)   bands (ev):

    -6.2504  -5.3184  -3.7143  -3.6950  -3.6950  -3.6327  -3.6327  -3.4476
    -3.4476  -3.3493  -3.3493  -2.1045   2.6478   8.7334   8.7334   9.7625
     9.8064   9.8064

          k = 0.0000 0.0000 0.1538 (  1467 PWs)   bands (ev):

    -6.0726  -5.3929  -3.6910  -3.6910  -3.6595  -3.6467  -3.6467  -3.4285
    -3.4285  -3.3589  -3.3589  -2.6570   3.7140   8.2344   8.8842   8.8842
     9.6441   9.6441

          k = 0.0000 0.0000-0.3075 (  1520 PWs)   bands (ev):

    -5.6806  -5.6806  -3.6747  -3.6747  -3.6747  -3.6747  -3.3897  -3.3897
    -3.3897  -3.3897  -3.3698  -3.3698   5.8961   5.8961   9.2452   9.2452
     9.2452   9.2452

          k = 0.0000 0.1925 0.0000 (  1485 PWs)   bands (ev):

    -5.9954  -5.2584  -3.6829  -3.6611  -3.6197  -3.5852  -3.5828  -3.4693
    -3.4467  -3.3854  -3.3436  -1.9196   3.0326   7.0393   8.0622   8.2155
     9.4467   9.5638

          k = 0.0000 0.1925 0.1538 (  1491 PWs)   bands (ev):

    -5.8421  -5.3101  -3.6738  -3.6537  -3.6255  -3.5980  -3.5617  -3.4326
    -3.4288  -3.3868  -3.3560  -2.4341   3.9558   7.1659   7.4955   8.3932
     9.0694   9.3422

          k = 0.0000 0.1925-0.3075 (  1492 PWs)   bands (ev):

    -5.5221  -5.5221  -3.6494  -3.6494  -3.6292  -3.6292  -3.4743  -3.4743
    -3.3896  -3.3896  -3.1314  -3.1314   5.7380   5.7380   8.1283   8.1283
     8.8516   8.8516

          k = 0.0000 0.3849 0.0000 (  1483 PWs)   bands (ev):

    -5.5238  -5.1757  -3.6462  -3.6267  -3.5496  -3.4867  -3.4845  -3.4512
    -3.4021  -3.3326  -3.0401  -1.5560   3.7679   4.8532   5.8708   7.3673
     8.4804   9.0485

          k = 0.0000 0.3849 0.1538 (  1489 PWs)   bands (ev):

    -5.4364  -5.1921  -3.6535  -3.6051  -3.5818  -3.5029  -3.4862  -3.4346
    -3.3951  -3.3467  -2.9246  -1.9142   3.7862   5.0593   6.0616   7.5836
     8.5851   8.7615

          k = 0.0000 0.3849-0.3075 (  1482 PWs)   bands (ev):

    -5.2764  -5.2764  -3.6379  -3.6379  -3.5523  -3.5523  -3.4524  -3.4524
    -3.3739  -3.3739  -2.5328  -2.5328   4.2790   4.2790   7.6671   7.6671
     8.1414   8.1414

          k = 0.0000-0.5774 0.0000 (  1488 PWs)   bands (ev):

    -5.3341  -5.1554  -3.6495  -3.6251  -3.5317  -3.4884  -3.4405  -3.4340
    -3.3589  -3.3239  -2.2199  -1.6820   3.2947   4.4769   5.5092   6.9985
     7.5262   8.7953

          k = 0.0000-0.5774 0.1538 (  1494 PWs)   bands (ev):

    -5.2845  -5.1561  -3.6623  -3.5966  -3.5742  -3.4915  -3.4624  -3.3941
    -3.3574  -3.3363  -2.1651  -1.7774   3.0257   3.8809   6.4394   7.2274
     8.0552   8.4869

          k = 0.0000-0.5774-0.3075 (  1480 PWs)   bands (ev):

    -5.1939  -5.1939  -3.6516  -3.6516  -3.5265  -3.5265  -3.4180  -3.4180
    -3.3514  -3.3514  -1.9945  -1.9945   3.1440   3.1440   7.8227   7.8227
     7.8505   7.8505

          k = 0.1667 0.2887 0.0000 (  1486 PWs)   bands (ev):

    -5.6311  -5.1930  -3.6504  -3.6278  -3.5601  -3.5363  -3.4885  -3.4275
    -3.4166  -3.3716  -3.2165  -1.6242   3.6705   5.7020   6.0952   7.3531
     8.7746   8.8567

          k = 0.1667 0.2887 0.1538 (  1481 PWs)   bands (ev):

    -5.5255  -5.2147  -3.6333  -3.6300  -3.5741  -3.5610  -3.4674  -3.4613
    -3.3939  -3.3783  -3.1110  -2.0456   4.1022   5.7606   6.3249   7.3180
     8.4606   8.8408

          k = 0.1667 0.2887-0.3075 (  1488 PWs)   bands (ev):

    -5.3271  -5.3271  -3.6137  -3.6137  -3.5863  -3.5863  -3.4834  -3.4834
    -3.3792  -3.3792  -2.7207  -2.7207   4.9210   4.9210   7.6442   7.6442
     7.9517   7.9517

          k = 0.1667 0.4811 0.0000 (  1487 PWs)   bands (ev):

    -5.3256  -5.1613  -3.6720  -3.5896  -3.5025  -3.4875  -3.4662  -3.4460
    -3.3843  -3.3503  -2.3844  -1.4711   3.7302   4.6921   5.5431   6.1149
     7.7353   8.0106

          k = 0.1667 0.4811 0.1538 (  1481 PWs)   bands (ev):

    -5.2743  -5.1588  -3.6417  -3.6067  -3.5531  -3.4889  -3.4673  -3.4250
    -3.3768  -3.3668  -2.2905  -1.6437   3.4662   4.2612   5.9858   6.7563
     7.5673   8.2582

          k = 0.1667 0.4811-0.3075 (  1484 PWs)   bands (ev):

    -5.1893  -5.1893  -3.6166  -3.6166  -3.5466  -3.5466  -3.4453  -3.4453
    -3.3694  -3.3694  -2.0086  -2.0086   3.5999   3.5999   6.7040   6.7040
     8.0942   8.0942

          k = 0.3333 0.5774 0.0000 (  1470 PWs)   bands (ev):

    -5.1966  -5.1966  -3.7004  -3.4944  -3.4944  -3.4758  -3.4626  -3.4626
    -3.4157  -3.3686  -1.6848  -1.6848   4.4094   4.4094   4.4581   6.7454
     6.7454   7.0735

          k = 0.3333 0.5774 0.1538 (  1473 PWs)   bands (ev):

    -5.1741  -5.1741  -3.6614  -3.5478  -3.5478  -3.4848  -3.4221  -3.4221
    -3.4200  -3.4043  -1.6791  -1.6791   3.9219   3.9219   4.7592   6.5580
     7.5503   7.5503

          k = 0.3333 0.5774-0.3075 (  1464 PWs)   bands (ev):

    -5.1499  -5.1499  -3.5797  -3.5797  -3.5622  -3.5622  -3.4273  -3.4273
    -3.4031  -3.4031  -1.6728  -1.6728   3.5785   3.5785   5.5671   5.5671
     8.2703   8.2703

     highest occupied level (ev):     9.8064

!    total energy              =    -596.33980528 Ry
     estimated scf accuracy    <       0.00000039 Ry

     The total energy is the sum of the following terms:
     one-electron contribution =    -181.39997797 Ry
     hartree contribution      =     129.85133577 Ry
     xc contribution           =     -87.83056555 Ry
     ewald contribution        =    -233.28276133 Ry
     one-center paw contrib.   =    -223.67783619 Ry

     convergence has been achieved in  24 iterations

     Forces acting on atoms (cartesian axes, Ry/au):

     atom    1 type  1   force =     0.00000000    0.00000000   -0.00482734
     atom    2 type  1   force =    -0.00000000   -0.00000000   -0.00482734
     atom    3 type  2   force =     0.00000000    0.00000000    0.00482734
     atom    4 type  2   force =     0.00000000    0.00000000    0.00482734

     Total force =     0.009655     Total SCF correction =     0.000018


     Computing stress (Cartesian axis) and pressure

          total   stress  (Ry/bohr**3)                   (kbar)     P=      -18.26
  -0.00016280   0.00000000   0.00000000          -23.95        0.00        0.00
   0.00000000  -0.00016280   0.00000000            0.00      -23.95        0.00
   0.00000000   0.00000000  -0.00004678            0.00        0.00       -6.88


     Writing all to output data dir /home/nico-sachs/source/q-e/tempdir/gan.save/ :
     XML data file, charge density, pseudopotentials, collected wavefunctions

     init_run     :      0.92s CPU      0.97s WALL (       1 calls)
     electrons    :     23.23s CPU     24.63s WALL (       1 calls)
     forces       :      0.14s CPU      0.14s WALL (       1 calls)
     stress       :      0.58s CPU      0.58s WALL (       1 calls)

     Called by init_run:
     wfcinit      :      0.18s CPU      0.19s WALL (       1 calls)
     potinit      :      0.32s CPU      0.35s WALL (       1 calls)
     hinit0       :      0.31s CPU      0.31s WALL (       1 calls)

     Called by electrons:
     c_bands      :     15.02s CPU     16.29s WALL (      24 calls)
     sum_band     :      1.90s CPU      2.01s WALL (      24 calls)
     v_of_rho     :      0.26s CPU      0.27s WALL (      25 calls)
     newd         :      0.94s CPU      0.96s WALL (      25 calls)
     PAW_pot      :      5.30s CPU      5.33s WALL (      25 calls)
     mix_rho      :      0.03s CPU      0.03s WALL (      24 calls)

     Called by c_bands:
     init_us_2    :      0.15s CPU      0.15s WALL (    1071 calls)
     ccgdiagg     :     12.45s CPU     13.49s WALL (     504 calls)
     wfcrot       :      2.63s CPU      2.86s WALL (     504 calls)

     Called by *cgdiagg:
     h_psi        :      8.54s CPU      9.35s WALL (   30163 calls)
     s_psi        :      2.73s CPU      2.93s WALL (   59822 calls)

     Called by h_psi:
     h_psi:calbec :      2.07s CPU      2.26s WALL (   30163 calls)
     vloc_psi     :      4.71s CPU      5.20s WALL (   30163 calls)
                                        0.00s GPU  (   30163 calls)
     add_vuspsi   :      1.55s CPU      1.66s WALL (   30163 calls)
     hs_1psi      :      8.14s CPU      8.85s WALL (   29659 calls)
     s_1psi       :      3.00s CPU      3.23s WALL (   29659 calls)

     General routines
     calbec       :      4.22s CPU      4.58s WALL (   60683 calls)
     fft          :      0.28s CPU      0.29s WALL (     348 calls)
     ffts         :      0.09s CPU      0.09s WALL (      49 calls)
     fftw         :      4.60s CPU      5.09s WALL (   86870 calls)
     interpolate  :      0.10s CPU      0.10s WALL (      25 calls)

     Parallel routines

     PWSCF        :     25.06s CPU     26.56s WALL


   This run was terminated on:  15:34:31  27Jan2026            

=------------------------------------------------------------------------------=
   JOB DONE.
=------------------------------------------------------------------------------=
