ANIMSTEPS    6
CRYSTAL
PRIMVEC
   -2.719831664    0.000000000    2.719831664
    0.000000000    2.719831664    2.719831664
   -2.719831664    2.719831664    0.000000000
PRIMCOORD    1
      2   1
Ga        0.00000   0.00000   0.00000   0.00000   0.07071   0.00000
P        -1.35992   1.35992   1.35992   0.00000   0.07071   0.00000
PRIMCOORD    2
      2   1
Ga        0.00000   0.00000   0.00000  -0.07071   0.00000   0.00000
P        -1.35992   1.35992   1.35992  -0.07071   0.00000   0.00000
PRIMCOORD    3
      2   1
Ga        0.00000   0.00000   0.00000   0.00000   0.00000   0.07071
P        -1.35992   1.35992   1.35992   0.00000   0.00000   0.07071
PRIMCOORD    4
      2   1
Ga        0.00000   0.00000   0.00000   0.00000  -0.04060   0.00000
P        -1.35992   1.35992   1.35992   0.00000   0.09139   0.00000
PRIMCOORD    5
      2   1
Ga        0.00000   0.00000   0.00000  -0.04060   0.00000   0.00000
P        -1.35992   1.35992   1.35992   0.09139   0.00000   0.00000
PRIMCOORD    6
      2   1
Ga        0.00000   0.00000   0.00000   0.00000   0.00000  -0.04060
P        -1.35992   1.35992   1.35992   0.00000   0.00000   0.09139
