[Molden Format]
[FREQ]
    0.00
    0.00
    0.00
  354.25
  354.25
  386.90
[FR-COORD]
Ga             0.00000        0.00000        0.00000
P             -2.56987        2.56987        2.56987
[FR-NORM-COORD]
 vibration     1
   0.00000   0.70711   0.00000
   0.00000   0.70711   0.00000
 vibration     2
  -0.70711   0.00000   0.00000
  -0.70711   0.00000   0.00000
 vibration     3
   0.00000   0.00000   0.70711
   0.00000   0.00000   0.70711
 vibration     4
   0.00000  -0.40597   0.00000
   0.00000   0.91388   0.00000
 vibration     5
  -0.40597   0.00000   0.00000
   0.91388   0.00000   0.00000
 vibration     6
   0.00000   0.00000  -0.40597
   0.00000   0.00000   0.91388
