
     Program PWSCF v.7.5 starts on 27Jan2026 at 15:28:18 

     This program is part of the open-source Quantum ESPRESSO suite
     for quantum simulation of materials; please cite
         "P. Giannozzi et al., J. Phys.:Condens. Matter 21 395502 (2009);
         "P. Giannozzi et al., J. Phys.:Condens. Matter 29 465901 (2017);
         "P. Giannozzi et al., J. Chem. Phys. 152 154105 (2020);
          URL http://www.quantum-espresso.org", 
     in publications or presentations arising from this work. More details at
     http://www.quantum-espresso.org/quote

     Parallel version (MPI), running on     1 processors

     MPI processes distributed on     1 nodes
     23043 MiB available memory on the printing compute node when the environment starts

     Waiting for input...
     Reading input from standard input

     Current dimensions of program PWSCF are:
     Max number of different atomic species (ntypx) = 10
     Max number of k-points (npk) =  40000
     Max angular momentum in pseudopotentials (lmaxx) =  4
     file Ga.pbe-dn-kjpaw_psl.1.0.0.UPF: wavefunction(s)  4S renormalized

     Subspace diagonalization in iterative solution of the eigenvalue problem:
     a serial algorithm will be used


     G-vector sticks info
     --------------------
     sticks:   dense  smooth     PW     G-vecs:    dense   smooth      PW
     Sum        1003     271     85                41745     5955    1099

     Using Slab Decomposition



     bravais-lattice index     =            4
     lattice parameter (alat)  =       6.0263  a.u.
     unit-cell volume          =     308.1662 (a.u.)^3
     number of atoms/cell      =            4
     number of atomic types    =            2
     number of electrons       =        36.00
     number of Kohn-Sham states=           18
     kinetic-energy cutoff     =      27.5000  Ry
     charge density cutoff     =     400.0000  Ry
     scf convergence threshold =      1.0E-06
     mixing beta               =       0.7000
     number of iterations used =            8  plain     mixing
     Exchange-correlation= PBE
                           (   1   4   3   4   0   0   0)

     celldm(1)=   6.026337  celldm(2)=   0.000000  celldm(3)=   1.625902
     celldm(4)=   0.000000  celldm(5)=   0.000000  celldm(6)=   0.000000

     crystal axes: (cart. coord. in units of alat)
               a(1) = (   1.000000   0.000000   0.000000 )  
               a(2) = (  -0.500000   0.866025   0.000000 )  
               a(3) = (   0.000000   0.000000   1.625902 )  

     reciprocal axes: (cart. coord. in units 2 pi/alat)
               b(1) = (  1.000000  0.577350 -0.000000 )  
               b(2) = (  0.000000  1.154701  0.000000 )  
               b(3) = (  0.000000 -0.000000  0.615043 )  


     PseudoPot. # 1 for Ga read from file:
     /home/nico-sachs/source/q-e/SSSP_1.3.0_PBE_efficiency/Ga.pbe-dn-kjpaw_psl.1.0.0.UPF
     MD5 check sum: a27b4342b1af7e5f338de752e9ed7044
     Pseudo is Projector augmented-wave + core cor, Zval = 13.0
     Generated using "atomic" code by A. Dal Corso  v.5.1
     Shape of augmentation charge: PSQ
     Using radial grid of 1205 points,  6 beta functions with: 
                l(1) =   0
                l(2) =   0
                l(3) =   1
                l(4) =   1
                l(5) =   2
                l(6) =   2
     Q(r) pseudized with 0 coefficients 


     PseudoPot. # 2 for N  read from file:
     /home/nico-sachs/source/q-e/SSSP_1.3.0_PBE_efficiency/N.pbe-n-radius_5.UPF
     MD5 check sum: 16739722b17309cd8fe442a2ace49922
     Pseudo is Ultrasoft + core correction, Zval =  5.0
     Generated using "atomic" code by A. Dal Corso  v.5.1
     Using radial grid of 1085 points,  4 beta functions with: 
                l(1) =   0
                l(2) =   0
                l(3) =   1
                l(4) =   1
     Q(r) pseudized with 0 coefficients 


     atomic species   valence    mass     pseudopotential
     Ga               13.00    69.72300     Ga( 1.00)
     N                 5.00    14.00700     N ( 1.00)

     12 Sym. Ops. (no inversion) found ( 6 have fractional translation)



   Cartesian axes

     site n.     atom                  positions (alat units)
         1        Ga     tau(   1) = (  -0.0000000   0.5773503   0.0000000  )
         2        Ga     tau(   2) = (   0.5000000   0.2886751   0.8129508  )
         3        N      tau(   3) = (  -0.0000000   0.5773503   0.6097131  )
         4        N      tau(   4) = (   0.5000000   0.2886751   1.4226638  )

     number of k points=    21
                       cart. coord. in units 2pi/alat
        k(    1) = (   0.0000000   0.0000000   0.0000000), wk =   0.0138889
        k(    2) = (   0.0000000   0.0000000   0.1537608), wk =   0.0277778
        k(    3) = (   0.0000000   0.0000000  -0.3075217), wk =   0.0138889
        k(    4) = (   0.0000000   0.1924501   0.0000000), wk =   0.0833333
        k(    5) = (   0.0000000   0.1924501   0.1537608), wk =   0.1666667
        k(    6) = (   0.0000000   0.1924501  -0.3075217), wk =   0.0833333
        k(    7) = (   0.0000000   0.3849002   0.0000000), wk =   0.0833333
        k(    8) = (   0.0000000   0.3849002   0.1537608), wk =   0.1666667
        k(    9) = (   0.0000000   0.3849002  -0.3075217), wk =   0.0833333
        k(   10) = (   0.0000000  -0.5773503   0.0000000), wk =   0.0416667
        k(   11) = (   0.0000000  -0.5773503   0.1537608), wk =   0.0833333
        k(   12) = (   0.0000000  -0.5773503  -0.3075217), wk =   0.0416667
        k(   13) = (   0.1666667   0.2886751   0.0000000), wk =   0.0833333
        k(   14) = (   0.1666667   0.2886751   0.1537608), wk =   0.1666667
        k(   15) = (   0.1666667   0.2886751  -0.3075217), wk =   0.0833333
        k(   16) = (   0.1666667   0.4811252   0.0000000), wk =   0.1666667
        k(   17) = (   0.1666667   0.4811252   0.1537608), wk =   0.3333333
        k(   18) = (   0.1666667   0.4811252  -0.3075217), wk =   0.1666667
        k(   19) = (   0.3333333   0.5773503   0.0000000), wk =   0.0277778
        k(   20) = (   0.3333333   0.5773503   0.1537608), wk =   0.0555556
        k(   21) = (   0.3333333   0.5773503  -0.3075217), wk =   0.0277778

     Dense  grid:    41745 G-vectors     FFT dimensions: (  40,  40,  64)

     Smooth grid:     5955 G-vectors     FFT dimensions: (  24,  24,  36)

     Estimated max dynamical RAM per process >     161.76 MB

     Initial potential from superposition of free atoms

     starting charge      35.9941, renormalised to      36.0000
     Starting wfcs are   26 randomized atomic wfcs
     Checking if some PAW data can be deallocated... 

     total cpu time spent up to now is        2.1 secs

     Self-consistent Calculation

     iteration #  1     ecut=    27.50 Ry     beta= 0.70
     CG style diagonalization
     ethr =  1.00E-02,  avg # of iterations =  2.0

     total cpu time spent up to now is        3.4 secs

     total energy              =    -595.51551263 Ry
     estimated scf accuracy    <       1.07875353 Ry

     iteration #  2     ecut=    27.50 Ry     beta= 0.70
     CG style diagonalization
     ethr =  3.00E-03,  avg # of iterations =  4.2

     total cpu time spent up to now is        5.4 secs

     total energy              =    -595.88620200 Ry
     estimated scf accuracy    <       1.03450937 Ry

     iteration #  3     ecut=    27.50 Ry     beta= 0.70
     CG style diagonalization
     ethr =  2.87E-03,  avg # of iterations =  3.6

     total cpu time spent up to now is        7.3 secs

     total energy              =    -596.04017448 Ry
     estimated scf accuracy    <       0.01426226 Ry

     iteration #  4     ecut=    27.50 Ry     beta= 0.70
     CG style diagonalization
     ethr =  3.96E-05,  avg # of iterations =  5.4

     total cpu time spent up to now is        9.4 secs

     total energy              =    -596.06265706 Ry
     estimated scf accuracy    <       0.02205749 Ry

     iteration #  5     ecut=    27.50 Ry     beta= 0.70
     CG style diagonalization
     ethr =  3.96E-05,  avg # of iterations =  3.4

     total cpu time spent up to now is       11.0 secs

     total energy              =    -596.06123353 Ry
     estimated scf accuracy    <       0.00541937 Ry

     iteration #  6     ecut=    27.50 Ry     beta= 0.70
     CG style diagonalization
     ethr =  1.51E-05,  avg # of iterations =  4.0

     total cpu time spent up to now is       12.9 secs

     total energy              =    -596.06312991 Ry
     estimated scf accuracy    <       0.00042851 Ry

     iteration #  7     ecut=    27.50 Ry     beta= 0.70
     CG style diagonalization
     ethr =  1.19E-06,  avg # of iterations =  4.7

     total cpu time spent up to now is       14.8 secs

     total energy              =    -596.06338705 Ry
     estimated scf accuracy    <       0.00002816 Ry

     iteration #  8     ecut=    27.50 Ry     beta= 0.70
     CG style diagonalization
     ethr =  7.82E-08,  avg # of iterations =  5.2

     total cpu time spent up to now is       16.8 secs

     total energy              =    -596.06340794 Ry
     estimated scf accuracy    <       0.00000420 Ry

     iteration #  9     ecut=    27.50 Ry     beta= 0.70
     CG style diagonalization
     ethr =  1.17E-08,  avg # of iterations =  5.3

     total cpu time spent up to now is       19.0 secs

     total energy              =    -596.06341047 Ry
     estimated scf accuracy    <       0.00000995 Ry

     iteration # 10     ecut=    27.50 Ry     beta= 0.70
     CG style diagonalization
     ethr =  1.17E-08,  avg # of iterations =  3.5

     total cpu time spent up to now is       20.7 secs

     total energy              =    -596.06341037 Ry
     estimated scf accuracy    <       0.00000678 Ry

     iteration # 11     ecut=    27.50 Ry     beta= 0.70
     CG style diagonalization
     ethr =  1.17E-08,  avg # of iterations =  3.0

     total cpu time spent up to now is       22.3 secs

     total energy              =    -596.06340794 Ry
     estimated scf accuracy    <       0.00000585 Ry

     iteration # 12     ecut=    27.50 Ry     beta= 0.70
     CG style diagonalization
     ethr =  1.17E-08,  avg # of iterations =  3.7

     total cpu time spent up to now is       24.0 secs

     End of self-consistent calculation

          k = 0.0000 0.0000 0.0000 (   713 PWs)   bands (ev):

    -6.2426  -5.3970  -4.0588  -4.0372  -4.0372  -3.9793  -3.9793  -3.8039
    -3.8039  -3.7087  -3.7087  -2.2292   2.6938   9.1330   9.1330  10.3894
    10.4922  10.4922

          k = 0.0000 0.0000 0.1538 (   724 PWs)   bands (ev):

    -6.0665  -5.4535  -4.0347  -4.0347  -3.9938  -3.9927  -3.9927  -3.7854
    -3.7854  -3.7207  -3.7207  -2.8548   3.8447   8.6868   9.3132   9.3132
    10.2850  10.2850

          k = 0.0000 0.0000-0.3075 (   724 PWs)   bands (ev):

    -5.6927  -5.6927  -4.0183  -4.0183  -4.0183  -4.0183  -3.7473  -3.7473
    -3.7473  -3.7473  -3.6568  -3.6568   6.2108   6.2108   9.7827   9.7827
     9.7827   9.7827

          k = 0.0000 0.1925 0.0000 (   741 PWs)   bands (ev):

    -5.9913  -5.3492  -4.0280  -4.0084  -3.9623  -3.9341  -3.9207  -3.8264
    -3.8051  -3.7462  -3.7033  -2.0251   3.0787   7.3153   8.5254   8.5373
     9.9823  10.1480

          k = 0.0000 0.1925 0.1538 (   741 PWs)   bands (ev):

    -5.8437  -5.3851  -4.0185  -4.0011  -3.9714  -3.9491  -3.8910  -3.7871
    -3.7856  -3.7345  -3.7172  -2.6061   4.0932   7.5055   7.8657   8.7373
     9.5719   9.8877

          k = 0.0000 0.1925-0.3075 (   740 PWs)   bands (ev):

    -5.5526  -5.5526  -3.9955  -3.9955  -3.9785  -3.9785  -3.8197  -3.8197
    -3.7488  -3.7488  -3.4027  -3.4027   6.0486   6.0486   8.4901   8.4901
     9.2815   9.2815

          k = 0.0000 0.3849 0.0000 (   743 PWs)   bands (ev):

    -5.5590  -5.2876  -3.9901  -3.9759  -3.8978  -3.8412  -3.8400  -3.8086
    -3.7616  -3.6920  -3.2879  -1.6125   3.8221   4.9824   6.1572   7.5622
     8.8545   9.4950

          k = 0.0000 0.3849 0.1538 (   752 PWs)   bands (ev):

    -5.4837  -5.2947  -3.9984  -3.9547  -3.9290  -3.8584  -3.8414  -3.7919
    -3.7558  -3.7089  -3.1565  -2.0150   3.8974   5.2774   6.2513   7.8016
     8.9667   9.1600

          k = 0.0000 0.3849-0.3075 (   750 PWs)   bands (ev):

    -5.3537  -5.3537  -3.9826  -3.9826  -3.9049  -3.9049  -3.8080  -3.8080
    -3.7347  -3.7347  -2.7090  -2.7090   4.4616   4.4616   7.9526   7.9526
     8.4482   8.4482

          k = 0.0000-0.5774 0.0000 (   746 PWs)   bands (ev):

    -5.4107  -5.2714  -3.9913  -3.9738  -3.8834  -3.8389  -3.7996  -3.7953
    -3.7213  -3.6851  -2.3731  -1.7443   3.3827   4.5839   5.6187   7.1278
     7.8472   9.1947

          k = 0.0000-0.5774 0.1538 (   758 PWs)   bands (ev):

    -5.3671  -5.2691  -4.0050  -3.9482  -3.9230  -3.8458  -3.8207  -3.7569
    -3.7198  -3.6985  -2.3083  -1.8536   3.0923   3.9807   6.6217   7.3914
     8.3626   8.8305

          k = 0.0000-0.5774-0.3075 (   760 PWs)   bands (ev):

    -5.2944  -5.2944  -3.9959  -3.9959  -3.8797  -3.8797  -3.7793  -3.7793
    -3.7141  -3.7141  -2.1074  -2.1074   3.2188   3.2188   8.0672   8.0672
     8.1259   8.1259

          k = 0.1667 0.2887 0.0000 (   751 PWs)   bands (ev):

    -5.6513  -5.2991  -3.9975  -3.9762  -3.9113  -3.8868  -3.8433  -3.7873
    -3.7750  -3.7253  -3.5059  -1.6914   3.7162   5.8697   6.4005   7.5671
     9.2379   9.2940

          k = 0.1667 0.2887 0.1538 (   748 PWs)   bands (ev):

    -5.5574  -5.3115  -3.9812  -3.9779  -3.9255  -3.9100  -3.8214  -3.8165
    -3.7533  -3.7347  -3.3790  -2.1655   4.2407   6.0651   6.5036   7.5460
     8.8774   9.2441

          k = 0.1667 0.2887-0.3075 (   746 PWs)   bands (ev):

    -5.3915  -5.3915  -3.9623  -3.9623  -3.9361  -3.9361  -3.8344  -3.8344
    -3.7393  -3.7393  -2.9253  -2.9253   5.1686   5.1686   7.9561   7.9561
     8.2300   8.2300

          k = 0.1667 0.4811 0.0000 (   760 PWs)   bands (ev):

    -5.3996  -5.2750  -4.0162  -3.9402  -3.8576  -3.8438  -3.8246  -3.8057
    -3.7454  -3.7120  -2.5512  -1.5180   3.7905   4.8241   5.6747   6.2304
     8.0276   8.3615

          k = 0.1667 0.4811 0.1538 (   753 PWs)   bands (ev):

    -5.3567  -5.2701  -3.9866  -3.9564  -3.9042  -3.8453  -3.8234  -3.7842
    -3.7375  -3.7261  -2.4430  -1.7113   3.5353   4.4020   6.1254   6.9289
     7.8692   8.5621

          k = 0.1667 0.4811-0.3075 (   762 PWs)   bands (ev):

    -5.2890  -5.2890  -3.9639  -3.9639  -3.9004  -3.9004  -3.8029  -3.8029
    -3.7314  -3.7314  -2.1248  -2.1248   3.7010   3.7010   6.9206   6.9206
     8.3481   8.3481

          k = 0.3333 0.5774 0.0000 (   765 PWs)   bands (ev):

    -5.3017  -5.3017  -4.0421  -3.8515  -3.8515  -3.8369  -3.8198  -3.8198
    -3.7798  -3.7310  -1.7652  -1.7652   4.4758   4.4758   4.5237   6.9586
     6.9586   7.3392

          k = 0.3333 0.5774 0.1538 (   756 PWs)   bands (ev):

    -5.2816  -5.2816  -4.0048  -3.8988  -3.8988  -3.8449  -3.7819  -3.7817
    -3.7817  -3.7630  -1.7572  -1.7572   3.9895   3.9895   4.8511   6.7910
     7.7821   7.7821

          k = 0.3333 0.5774-0.3075 (   768 PWs)   bands (ev):

    -5.2611  -5.2611  -3.9314  -3.9314  -3.9158  -3.9158  -3.7874  -3.7874
    -3.7647  -3.7647  -1.7531  -1.7531   3.6412   3.6412   5.7207   5.7207
     8.5140   8.5140

     highest occupied level (ev):    10.4922

!    total energy              =    -596.06340878 Ry
     estimated scf accuracy    <       0.00000013 Ry

     The total energy is the sum of the following terms:
     one-electron contribution =    -180.71436180 Ry
     hartree contribution      =     127.03684327 Ry
     xc contribution           =     -87.31721391 Ry
     ewald contribution        =    -233.28276133 Ry
     one-center paw contrib.   =    -221.78591501 Ry

     convergence has been achieved in  12 iterations

     Forces acting on atoms (cartesian axes, Ry/au):

     atom    1 type  1   force =     0.00000000   -0.00000000   -0.00429593
     atom    2 type  1   force =    -0.00000000   -0.00000000   -0.00429593
     atom    3 type  2   force =    -0.00000000   -0.00000000    0.00429593
     atom    4 type  2   force =    -0.00000000   -0.00000000    0.00429593

     Total force =     0.008592     Total SCF correction =     0.000056


     Computing stress (Cartesian axis) and pressure

          total   stress  (Ry/bohr**3)                   (kbar)     P=       88.92
   0.00054191   0.00000000   0.00000000           79.72        0.00        0.00
   0.00000000   0.00054191   0.00000000            0.00       79.72        0.00
   0.00000000   0.00000000   0.00072962            0.00        0.00      107.33


     Writing all to output data dir /home/nico-sachs/source/q-e/tempdir/gan.save/ :
     XML data file, charge density, pseudopotentials, collected wavefunctions

     init_run     :      1.88s CPU      1.99s WALL (       1 calls)
     electrons    :     20.58s CPU     21.89s WALL (       1 calls)
     forces       :      0.38s CPU      0.42s WALL (       1 calls)
     stress       :      1.61s CPU      1.74s WALL (       1 calls)

     Called by init_run:
     wfcinit      :      0.41s CPU      0.41s WALL (       1 calls)
     potinit      :      0.61s CPU      0.67s WALL (       1 calls)
     hinit0       :      0.71s CPU      0.72s WALL (       1 calls)

     Called by electrons:
     c_bands      :     11.53s CPU     11.82s WALL (      12 calls)
     sum_band     :      2.53s CPU      3.08s WALL (      12 calls)
     v_of_rho     :      0.43s CPU      0.43s WALL (      13 calls)
     newd         :      1.80s CPU      2.29s WALL (      13 calls)
     PAW_pot      :      4.75s CPU      4.81s WALL (      13 calls)
     mix_rho      :      0.03s CPU      0.03s WALL (      12 calls)

     Called by c_bands:
     init_us_2    :      0.12s CPU      0.12s WALL (     567 calls)
     ccgdiagg     :      9.38s CPU      9.64s WALL (     252 calls)
     wfcrot       :      2.47s CPU      2.50s WALL (     252 calls)

     Called by *cgdiagg:
     h_psi        :      7.29s CPU      7.47s WALL (   14195 calls)
     s_psi        :      2.13s CPU      2.19s WALL (   28138 calls)

     Called by h_psi:
     h_psi:calbec :      1.52s CPU      1.56s WALL (   14195 calls)
     vloc_psi     :      4.45s CPU      4.57s WALL (   14195 calls)
                                        0.00s GPU  (   14195 calls)
     add_vuspsi   :      1.22s CPU      1.25s WALL (   14195 calls)
     hs_1psi      :      6.49s CPU      6.67s WALL (   13943 calls)
     s_1psi       :      2.17s CPU      2.23s WALL (   13943 calls)

     General routines
     calbec       :      3.33s CPU      3.42s WALL (   28747 calls)
     fft          :      0.44s CPU      0.44s WALL (     192 calls)
     ffts         :      0.21s CPU      0.21s WALL (      25 calls)
     fftw         :      4.26s CPU      4.37s WALL (   41830 calls)
     interpolate  :      0.22s CPU      0.22s WALL (      13 calls)

     Parallel routines

     PWSCF        :     24.62s CPU     26.26s WALL


   This run was terminated on:  15:28:44  27Jan2026            

=------------------------------------------------------------------------------=
   JOB DONE.
=------------------------------------------------------------------------------=
