
     Program PWSCF v.7.5 starts on 26Jan2026 at 22:57:20 

     This program is part of the open-source Quantum ESPRESSO suite
     for quantum simulation of materials; please cite
         "P. Giannozzi et al., J. Phys.:Condens. Matter 21 395502 (2009);
         "P. Giannozzi et al., J. Phys.:Condens. Matter 29 465901 (2017);
         "P. Giannozzi et al., J. Chem. Phys. 152 154105 (2020);
          URL http://www.quantum-espresso.org", 
     in publications or presentations arising from this work. More details at
     http://www.quantum-espresso.org/quote

     Parallel version (MPI), running on     1 processors

     MPI processes distributed on     1 nodes
     25390 MiB available memory on the printing compute node when the environment starts

     Waiting for input...
     Reading input from standard input

     Current dimensions of program PWSCF are:
     Max number of different atomic species (ntypx) = 10
     Max number of k-points (npk) =  40000
     Max angular momentum in pseudopotentials (lmaxx) =  4
     file In.pbe-dn-rrkjus_psl.0.2.2.UPF: wavefunction(s)  5S renormalized
     Message from routine set_cutoff:
     ecutrho < 4*ecutwfc, are you sure?

     Subspace diagonalization in iterative solution of the eigenvalue problem:
     a serial algorithm will be used


     G-vector sticks info
     --------------------
     sticks:   dense  smooth     PW     G-vecs:    dense   smooth      PW
     Sum         955     955    379                19579    19579    5029

     Using Slab Decomposition



     bravais-lattice index     =            2
     lattice parameter (alat)  =      11.4291  a.u.
     unit-cell volume          =     373.2261 (a.u.)^3
     number of atoms/cell      =            2
     number of atomic types    =            2
     number of electrons       =        18.00
     number of Kohn-Sham states=            9
     kinetic-energy cutoff     =      74.4444  Ry
     charge density cutoff     =     212.0000  Ry
     scf convergence threshold =      1.0E-06
     mixing beta               =       0.7000
     number of iterations used =            8  plain     mixing
     Exchange-correlation= PBE
                           (   1   4   3   4   0   0   0)

     celldm(1)=  11.429064  celldm(2)=   0.000000  celldm(3)=   0.000000
     celldm(4)=   0.000000  celldm(5)=   0.000000  celldm(6)=   0.000000

     crystal axes: (cart. coord. in units of alat)
               a(1) = (  -0.500000   0.000000   0.500000 )  
               a(2) = (   0.000000   0.500000   0.500000 )  
               a(3) = (  -0.500000   0.500000   0.000000 )  

     reciprocal axes: (cart. coord. in units 2 pi/alat)
               b(1) = ( -1.000000 -1.000000  1.000000 )  
               b(2) = (  1.000000  1.000000  1.000000 )  
               b(3) = ( -1.000000  1.000000 -1.000000 )  


     PseudoPot. # 1 for In read from file:
     /home/nico-sachs/source/q-e/SSSP_1.3.0_PBE_efficiency/In.pbe-dn-rrkjus_psl.0.2.2.UPF
     MD5 check sum: 25e7c42c3b55b68f4bf926be2e7201a4
     Pseudo is Ultrasoft + core correction, Zval = 13.0
     Generated using "atomic" code by A. Dal Corso  v.5.0.99 svn rev. 10869
     Using radial grid of 1241 points,  6 beta functions with: 
                l(1) =   0
                l(2) =   0
                l(3) =   1
                l(4) =   1
                l(5) =   2
                l(6) =   2
     Q(r) pseudized with 0 coefficients 


     PseudoPot. # 2 for As read from file:
     /home/nico-sachs/source/q-e/SSSP_1.3.0_PBE_efficiency/As.pbe-n-rrkjus_psl.0.2.UPF
     MD5 check sum: 767315de957beeeb34f87d97bf945c8f
     Pseudo is Ultrasoft + core correction, Zval =  5.0
     Generated using "atomic" code by A. Dal Corso  v.5.0.99 svn rev. 10869
     Using radial grid of 1209 points,  4 beta functions with: 
                l(1) =   0
                l(2) =   0
                l(3) =   1
                l(4) =   1
     Q(r) pseudized with 0 coefficients 


     atomic species   valence    mass     pseudopotential
     In               13.00   114.81800     In( 1.00)
     As                5.00    74.92100     As( 1.00)

     24 Sym. Ops. (no inversion) found



   Cartesian axes

     site n.     atom                  positions (alat units)
         1        In     tau(   1) = (   0.0000000   0.0000000   0.0000000  )
         2        As     tau(   2) = (  -0.2500000   0.2500000   0.2500000  )

     number of k points=    60
                       cart. coord. in units 2pi/alat
        k(    1) = (   0.0625000   0.0625000   0.0625000), wk =   0.0078125
        k(    2) = (   0.0625000   0.0625000   0.1875000), wk =   0.0234375
        k(    3) = (   0.0625000   0.0625000   0.3125000), wk =   0.0234375
        k(    4) = (   0.0625000   0.0625000   0.4375000), wk =   0.0234375
        k(    5) = (   0.0625000   0.0625000   0.5625000), wk =   0.0234375
        k(    6) = (   0.0625000   0.0625000   0.6875000), wk =   0.0234375
        k(    7) = (   0.0625000   0.0625000   0.8125000), wk =   0.0234375
        k(    8) = (   0.0625000   0.0625000   0.9375000), wk =   0.0234375
        k(    9) = (   0.0625000   0.1875000   0.1875000), wk =   0.0234375
        k(   10) = (   0.0625000   0.1875000   0.3125000), wk =   0.0468750
        k(   11) = (   0.0625000   0.1875000   0.4375000), wk =   0.0468750
        k(   12) = (   0.0625000   0.1875000   0.5625000), wk =   0.0468750
        k(   13) = (   0.0625000   0.1875000   0.6875000), wk =   0.0468750
        k(   14) = (   0.0625000   0.1875000   0.8125000), wk =   0.0468750
        k(   15) = (   0.0625000   0.1875000   0.9375000), wk =   0.0468750
        k(   16) = (   0.0625000   0.3125000   0.3125000), wk =   0.0234375
        k(   17) = (   0.0625000   0.3125000   0.4375000), wk =   0.0468750
        k(   18) = (   0.0625000   0.3125000   0.5625000), wk =   0.0468750
        k(   19) = (   0.0625000   0.3125000   0.6875000), wk =   0.0468750
        k(   20) = (   0.0625000   0.3125000   0.8125000), wk =   0.0468750
        k(   21) = (   0.0625000   0.3125000   0.9375000), wk =   0.0468750
        k(   22) = (   0.0625000   0.4375000   0.4375000), wk =   0.0234375
        k(   23) = (   0.0625000   0.4375000   0.5625000), wk =   0.0468750
        k(   24) = (   0.0625000   0.4375000   0.6875000), wk =   0.0468750
        k(   25) = (   0.0625000   0.4375000   0.8125000), wk =   0.0468750
        k(   26) = (   0.0625000   0.4375000   0.9375000), wk =   0.0468750
        k(   27) = (   0.0625000   0.5625000   0.5625000), wk =   0.0234375
        k(   28) = (   0.0625000   0.5625000   0.6875000), wk =   0.0468750
        k(   29) = (   0.0625000   0.5625000   0.8125000), wk =   0.0468750
        k(   30) = (   0.0625000   0.6875000   0.6875000), wk =   0.0234375
        k(   31) = (   0.0625000   0.6875000   0.8125000), wk =   0.0468750
        k(   32) = (   0.0625000   0.8125000   0.8125000), wk =   0.0234375
        k(   33) = (   0.1875000   0.1875000   0.1875000), wk =   0.0078125
        k(   34) = (   0.1875000   0.1875000   0.3125000), wk =   0.0234375
        k(   35) = (   0.1875000   0.1875000   0.4375000), wk =   0.0234375
        k(   36) = (   0.1875000   0.1875000   0.5625000), wk =   0.0234375
        k(   37) = (   0.1875000   0.1875000   0.6875000), wk =   0.0234375
        k(   38) = (   0.1875000   0.1875000   0.8125000), wk =   0.0234375
        k(   39) = (   0.1875000   0.3125000   0.3125000), wk =   0.0234375
        k(   40) = (   0.1875000   0.3125000   0.4375000), wk =   0.0468750
        k(   41) = (   0.1875000   0.3125000   0.5625000), wk =   0.0468750
        k(   42) = (   0.1875000   0.3125000   0.6875000), wk =   0.0468750
        k(   43) = (   0.1875000   0.3125000   0.8125000), wk =   0.0468750
        k(   44) = (   0.1875000   0.4375000   0.4375000), wk =   0.0234375
        k(   45) = (   0.1875000   0.4375000   0.5625000), wk =   0.0468750
        k(   46) = (   0.1875000   0.4375000   0.6875000), wk =   0.0468750
        k(   47) = (   0.1875000   0.4375000   0.8125000), wk =   0.0468750
        k(   48) = (   0.1875000   0.5625000   0.5625000), wk =   0.0234375
        k(   49) = (   0.1875000   0.5625000   0.6875000), wk =   0.0468750
        k(   50) = (   0.1875000   0.6875000   0.6875000), wk =   0.0234375
        k(   51) = (   0.3125000   0.3125000   0.3125000), wk =   0.0078125
        k(   52) = (   0.3125000   0.3125000   0.4375000), wk =   0.0234375
        k(   53) = (   0.3125000   0.3125000   0.5625000), wk =   0.0234375
        k(   54) = (   0.3125000   0.3125000   0.6875000), wk =   0.0234375
        k(   55) = (   0.3125000   0.4375000   0.4375000), wk =   0.0234375
        k(   56) = (   0.3125000   0.4375000   0.5625000), wk =   0.0468750
        k(   57) = (   0.3125000   0.4375000   0.6875000), wk =   0.0468750
        k(   58) = (   0.3125000   0.5625000   0.5625000), wk =   0.0234375
        k(   59) = (   0.4375000   0.4375000   0.4375000), wk =   0.0078125
        k(   60) = (   0.4375000   0.4375000   0.5625000), wk =   0.0234375

     Dense  grid:    19579 G-vectors     FFT dimensions: (  40,  40,  40)

     Estimated max dynamical RAM per process >     111.04 MB

     Check: negative core charge=   -0.000002

     Initial potential from superposition of free atoms

     starting charge      17.9960, renormalised to      18.0000
     Starting wfcs are   13 randomized atomic wfcs

     total cpu time spent up to now is        3.8 secs

     Self-consistent Calculation

     iteration #  1     ecut=    74.44 Ry     beta= 0.70
     CG style diagonalization
     ethr =  1.00E-02,  avg # of iterations =  2.0

     Threshold (ethr) on eigenvalues was too large:
     Diagonalizing with lowered threshold

     CG style diagonalization
     ethr =  3.62E-04,  avg # of iterations =  2.9

     total cpu time spent up to now is       13.8 secs

     total energy              =    -163.05427595 Ry
     estimated scf accuracy    <       0.06783308 Ry

     iteration #  2     ecut=    74.44 Ry     beta= 0.70
     CG style diagonalization
     ethr =  3.77E-04,  avg # of iterations =  3.6

     total cpu time spent up to now is       20.3 secs

     total energy              =    -163.06952447 Ry
     estimated scf accuracy    <       0.01613254 Ry

     iteration #  3     ecut=    74.44 Ry     beta= 0.70
     CG style diagonalization
     ethr =  8.96E-05,  avg # of iterations =  3.6

     total cpu time spent up to now is       26.8 secs

     total energy              =    -163.07408265 Ry
     estimated scf accuracy    <       0.00042438 Ry

     iteration #  4     ecut=    74.44 Ry     beta= 0.70
     CG style diagonalization
     ethr =  2.36E-06,  avg # of iterations =  5.0

     total cpu time spent up to now is       35.7 secs

     total energy              =    -163.07443727 Ry
     estimated scf accuracy    <       0.00006302 Ry

     iteration #  5     ecut=    74.44 Ry     beta= 0.70
     CG style diagonalization
     ethr =  3.50E-07,  avg # of iterations =  4.0

     total cpu time spent up to now is       42.9 secs

     total energy              =    -163.07443746 Ry
     estimated scf accuracy    <       0.00003169 Ry

     iteration #  6     ecut=    74.44 Ry     beta= 0.70
     CG style diagonalization
     ethr =  1.76E-07,  avg # of iterations =  3.5

     total cpu time spent up to now is       49.3 secs

     total energy              =    -163.07443974 Ry
     estimated scf accuracy    <       0.00000345 Ry

     iteration #  7     ecut=    74.44 Ry     beta= 0.70
     CG style diagonalization
     ethr =  1.92E-08,  avg # of iterations =  5.4

     total cpu time spent up to now is       59.0 secs

     End of self-consistent calculation

          k = 0.0625 0.0625 0.0625 (  4026 PWs)   bands (ev):

    -7.8926  -7.8859  -7.8859  -7.7629  -7.7629  -5.2855   5.5669   6.4787
     6.4787

          k = 0.0625 0.0625 0.1875 (  4026 PWs)   bands (ev):

    -7.9078  -7.8811  -7.8803  -7.7650  -7.7611  -5.1786   4.8112   6.2029
     6.2584

          k = 0.0625 0.0625 0.3125 (  4029 PWs)   bands (ev):

    -7.9355  -7.8706  -7.8698  -7.7694  -7.7576  -4.9719   3.9778   5.7817
     5.7968

          k = 0.0625 0.0625 0.4375 (  4028 PWs)   bands (ev):

    -7.9690  -7.8566  -7.8558  -7.7756  -7.7532  -4.6792   3.1559   5.2990
     5.3334

          k = 0.0625 0.0625 0.5625 (  4043 PWs)   bands (ev):

    -8.0023  -7.8412  -7.8403  -7.7829  -7.7485  -4.3219   2.3727   4.8482
     4.9266

          k = 0.0625 0.0625 0.6875 (  4053 PWs)   bands (ev):

    -8.0309  -7.8267  -7.8257  -7.7899  -7.7443  -3.9351   1.6625   4.4856
     4.5983

          k = 0.0625 0.0625 0.8125 (  4058 PWs)   bands (ev):

    -8.0517  -7.8156  -7.8143  -7.7954  -7.7412  -3.5797   1.0880   4.2339
     4.3697

          k = 0.0625 0.0625 0.9375 (  4056 PWs)   bands (ev):

    -8.0626  -7.8098  -7.8080  -7.7981  -7.7395  -3.3530   0.7502   4.1054
     4.2527

          k = 0.0625 0.1875 0.1875 (  4032 PWs)   bands (ev):

    -7.9180  -7.8798  -7.8761  -7.7647  -7.7611  -5.0748   4.2310   5.9298
     6.3710

          k = 0.0625 0.1875 0.3125 (  4035 PWs)   bands (ev):

    -7.9411  -7.8718  -7.8677  -7.7676  -7.7582  -4.8745   3.5288   5.4858
     6.0684

          k = 0.0625 0.1875 0.4375 (  4033 PWs)   bands (ev):

    -7.9710  -7.8592  -7.8559  -7.7730  -7.7539  -4.5916   2.8276   5.0145
     5.5634

          k = 0.0625 0.1875 0.5625 (  4049 PWs)   bands (ev):

    -8.0014  -7.8456  -7.8416  -7.7794  -7.7494  -4.2484   2.1605   4.5838
     5.0582

          k = 0.0625 0.1875 0.6875 (  4047 PWs)   bands (ev):

    -8.0277  -7.8330  -7.8274  -7.7857  -7.7458  -3.8806   1.5560   4.2289
     4.6397

          k = 0.0625 0.1875 0.8125 (  4050 PWs)   bands (ev):

    -8.0468  -7.8229  -7.8165  -7.7904  -7.7434  -3.5476   1.0663   3.9741
     4.3498

          k = 0.0625 0.1875 0.9375 (  4056 PWs)   bands (ev):

    -8.0569  -7.8173  -7.8108  -7.7926  -7.7424  -3.3386   0.7786   3.8401
     4.2038

          k = 0.0625 0.3125 0.3125 (  4034 PWs)   bands (ev):

    -7.9555  -7.8687  -7.8632  -7.7663  -7.7583  -4.6871   2.9481   5.0398
     6.1224

          k = 0.0625 0.3125 0.4375 (  4046 PWs)   bands (ev):

    -7.9776  -7.8598  -7.8555  -7.7688  -7.7556  -4.4246   2.3698   4.5824
     5.7793

          k = 0.0625 0.3125 0.5625 (  4054 PWs)   bands (ev):

    -8.0019  -7.8504  -7.8430  -7.7737  -7.7520  -4.1106   1.8385   4.1827
     5.2472

          k = 0.0625 0.3125 0.6875 (  4052 PWs)   bands (ev):

    -8.0236  -7.8414  -7.8293  -7.7789  -7.7493  -3.7816   1.3789   3.8757
     4.7134

          k = 0.0625 0.3125 0.8125 (  4053 PWs)   bands (ev):

    -8.0396  -7.8337  -7.8185  -7.7830  -7.7479  -3.4931   1.0229   3.6790
     4.2872

          k = 0.0625 0.3125 0.9375 (  4059 PWs)   bands (ev):

    -8.0481  -7.8289  -7.8130  -7.7850  -7.7474  -3.3181   0.8207   3.5921
     4.0447

          k = 0.0625 0.4375 0.4375 (  4046 PWs)   bands (ev):

    -7.9903  -7.8543  -7.8537  -7.7655  -7.7576  -4.1944   1.9102   4.1501
     5.7271

          k = 0.0625 0.4375 0.5625 (  4050 PWs)   bands (ev):

    -8.0066  -7.8505  -7.8430  -7.7673  -7.7566  -3.9266   1.5059   3.7894
     5.3552

          k = 0.0625 0.4375 0.6875 (  4054 PWs)   bands (ev):

    -8.0225  -7.8459  -7.8301  -7.7720  -7.7543  -3.6573   1.1853   3.5409
     4.8189

          k = 0.0625 0.4375 0.8125 (  4052 PWs)   bands (ev):

    -8.0347  -7.8411  -7.8196  -7.7763  -7.7529  -3.4329   0.9644   3.4298
     4.2936

          k = 0.0625 0.4375 0.9375 (  4060 PWs)   bands (ev):

    -8.0413  -7.8379  -7.8140  -7.7786  -7.7523  -3.3035   0.8520   3.4500
     3.9205

          k = 0.0625 0.5625 0.5625 (  4048 PWs)   bands (ev):

    -8.0159  -7.8466  -7.8388  -7.7633  -7.7609  -3.7229   1.2238   3.4807
     5.2500

          k = 0.0625 0.5625 0.6875 (  4052 PWs)   bands (ev):

    -8.0269  -7.8433  -7.8290  -7.7699  -7.7567  -3.5312   1.0218   3.3043
     4.8860

          k = 0.0625 0.5625 0.8125 (  4056 PWs)   bands (ev):

    -8.0361  -7.8402  -7.8193  -7.7756  -7.7538  -3.3834   0.9030   3.2939
     4.3829

          k = 0.0625 0.6875 0.6875 (  4057 PWs)   bands (ev):

    -8.0350  -7.8368  -7.8246  -7.7754  -7.7532  -3.4254   0.9103   3.2200
     4.7925

          k = 0.0625 0.6875 0.8125 (  4056 PWs)   bands (ev):

    -8.0432  -7.8318  -7.8175  -7.7817  -7.7494  -3.3534   0.8477   3.3192
     4.4768

          k = 0.0625 0.8125 0.8125 (  4063 PWs)   bands (ev):

    -8.0516  -7.8225  -7.8138  -7.7886  -7.7449  -3.3412   0.8038   3.5157
     4.4414

          k = 0.1875 0.1875 0.1875 (  4023 PWs)   bands (ev):

    -7.9274  -7.8756  -7.8756  -7.7625  -7.7625  -4.9746   3.7196   6.1540
     6.1540

          k = 0.1875 0.1875 0.3125 (  4032 PWs)   bands (ev):

    -7.9475  -7.8704  -7.8676  -7.7655  -7.7586  -4.7814   3.0901   5.8053
     5.8909

          k = 0.1875 0.1875 0.4375 (  4034 PWs)   bands (ev):

    -7.9740  -7.8606  -7.8566  -7.7702  -7.7541  -4.5097   2.4755   5.2971
     5.4177

          k = 0.1875 0.1875 0.5625 (  4052 PWs)   bands (ev):

    -8.0013  -7.8486  -7.8437  -7.7760  -7.7499  -4.1828   1.9118   4.6689
     5.0556

          k = 0.1875 0.1875 0.6875 (  4057 PWs)   bands (ev):

    -8.0251  -7.8368  -7.8308  -7.7817  -7.7469  -3.8371   1.4188   4.1230
     4.7583

          k = 0.1875 0.1875 0.8125 (  4054 PWs)   bands (ev):

    -8.0424  -7.8276  -7.8201  -7.7862  -7.7453  -3.5299   1.0293   3.7247
     4.5491

          k = 0.1875 0.3125 0.3125 (  4040 PWs)   bands (ev):

    -7.9614  -7.8671  -7.8640  -7.7636  -7.7584  -4.6028   2.5390   5.4708
     6.0024

          k = 0.1875 0.3125 0.4375 (  4042 PWs)   bands (ev):

    -7.9812  -7.8604  -7.8566  -7.7659  -7.7551  -4.3546   2.0160   5.0143
     5.6906

          k = 0.1875 0.3125 0.5625 (  4047 PWs)   bands (ev):

    -8.0026  -7.8521  -7.8458  -7.7703  -7.7516  -4.0617   1.5680   4.5084
     5.2359

          k = 0.1875 0.3125 0.6875 (  4048 PWs)   bands (ev):

    -8.0217  -7.8435  -7.8337  -7.7752  -7.7495  -3.7610   1.2161   3.9957
     4.8557

          k = 0.1875 0.3125 0.8125 (  4057 PWs)   bands (ev):

    -8.0358  -7.8362  -7.8235  -7.7793  -7.7491  -3.5046   0.9728   3.5659
     4.6023

          k = 0.1875 0.4375 0.4375 (  4044 PWs)   bands (ev):

    -7.9929  -7.8558  -7.8551  -7.7625  -7.7564  -4.1440   1.5889   4.6186
     5.7034

          k = 0.1875 0.4375 0.5625 (  4048 PWs)   bands (ev):

    -8.0070  -7.8522  -7.8463  -7.7642  -7.7552  -3.9046   1.2532   4.2163
     5.3772

          k = 0.1875 0.4375 0.6875 (  4047 PWs)   bands (ev):

    -8.0204  -7.8478  -7.8351  -7.7687  -7.7536  -3.6719   1.0343   3.8361
     4.9350

          k = 0.1875 0.4375 0.8125 (  4050 PWs)   bands (ev):

    -8.0306  -7.8432  -7.8251  -7.7730  -7.7534  -3.4863   0.9301   3.5046
     4.5730

          k = 0.1875 0.5625 0.5625 (  4041 PWs)   bands (ev):

    -8.0146  -7.8490  -7.8430  -7.7614  -7.7583  -3.7383   1.0330   3.9180
     5.2953

          k = 0.1875 0.5625 0.6875 (  4050 PWs)   bands (ev):

    -8.0233  -7.8461  -7.8343  -7.7674  -7.7551  -3.5915   0.9316   3.6703
     4.9753

          k = 0.1875 0.6875 0.6875 (  4048 PWs)   bands (ev):

    -8.0294  -7.8406  -7.8304  -7.7730  -7.7519  -3.5349   0.9219   3.5619
     4.8785

          k = 0.3125 0.3125 0.3125 (  4053 PWs)   bands (ev):

    -7.9728  -7.8635  -7.8635  -7.7593  -7.7593  -4.4429   2.0347   5.7903
     5.7903

          k = 0.3125 0.3125 0.4375 (  4045 PWs)   bands (ev):

    -7.9881  -7.8601  -7.8574  -7.7615  -7.7549  -4.2248   1.5810   5.4862
     5.5305

          k = 0.3125 0.3125 0.5625 (  4040 PWs)   bands (ev):

    -8.0043  -7.8542  -7.8491  -7.7650  -7.7518  -3.9753   1.2328   4.8274
     5.2688

          k = 0.3125 0.3125 0.6875 (  4040 PWs)   bands (ev):

    -8.0188  -7.8471  -7.8394  -7.7692  -7.7509  -3.7311   1.0141   4.1384
     5.0427

          k = 0.3125 0.4375 0.4375 (  4048 PWs)   bands (ev):

    -7.9974  -7.8573  -7.8566  -7.7582  -7.7551  -4.0547   1.2126   5.2297
     5.6528

          k = 0.3125 0.4375 0.5625 (  4043 PWs)   bands (ev):

    -8.0075  -7.8544  -7.8508  -7.7598  -7.7538  -3.8725   0.9727   4.8032
     5.4142

          k = 0.3125 0.4375 0.6875 (  4038 PWs)   bands (ev):

    -8.0166  -7.8504  -7.8425  -7.7635  -7.7536  -3.7095   0.8853   4.2322
     5.1526

          k = 0.3125 0.5625 0.5625 (  4033 PWs)   bands (ev):

    -8.0119  -7.8525  -7.8489  -7.7585  -7.7552  -3.7777   0.8517   4.5733
     5.3764

          k = 0.4375 0.4375 0.4375 (  4050 PWs)   bands (ev):

    -8.0028  -7.8570  -7.8570  -7.7548  -7.7548  -3.9479   0.9306   5.5744
     5.5744

          k = 0.4375 0.4375 0.5625 (  4059 PWs)   bands (ev):

    -8.0079  -7.8555  -7.8541  -7.7560  -7.7537  -3.8491   0.8050   5.2405
     5.4764

     highest occupied level (ev):     6.4787

!    total energy              =    -163.07444211 Ry
     estimated scf accuracy    <       0.00000070 Ry

     The total energy is the sum of the following terms:
     one-electron contribution =     -63.89672837 Ry
     hartree contribution      =      44.67311184 Ry
     xc contribution           =     -56.90451454 Ry
     ewald contribution        =     -86.94631103 Ry

     convergence has been achieved in   7 iterations

     Forces acting on atoms (cartesian axes, Ry/au):

     atom    1 type  1   force =     0.00000000    0.00000000    0.00000000
     atom    2 type  2   force =     0.00000000    0.00000000    0.00000000

     Total force =     0.000000     Total SCF correction =     0.000000


     Computing stress (Cartesian axis) and pressure

          total   stress  (Ry/bohr**3)                   (kbar)     P=       40.68
   0.00027654   0.00000000  -0.00000000           40.68        0.00       -0.00
   0.00000000   0.00027654  -0.00000000            0.00       40.68       -0.00
  -0.00000000   0.00000000   0.00027654           -0.00        0.00       40.68


     Writing all to output data dir /home/nico-sachs/source/q-e/tempdir/inas.save/ :
     XML data file, charge density, pseudopotentials, collected wavefunctions

     init_run     :      3.49s CPU      3.57s WALL (       1 calls)
     electrons    :     54.24s CPU     55.16s WALL (       1 calls)
     forces       :      0.83s CPU      0.87s WALL (       1 calls)
     stress       :      3.91s CPU      4.00s WALL (       1 calls)

     Called by init_run:
     wfcinit      :      2.43s CPU      2.45s WALL (       1 calls)
     potinit      :      0.08s CPU      0.08s WALL (       1 calls)
     hinit0       :      0.86s CPU      0.87s WALL (       1 calls)

     Called by electrons:
     c_bands      :     48.20s CPU     48.60s WALL (       8 calls)
     sum_band     :      5.27s CPU      5.58s WALL (       8 calls)
     v_of_rho     :      0.22s CPU      0.23s WALL (       8 calls)
     newd         :      0.63s CPU      0.87s WALL (       8 calls)
     mix_rho      :      0.02s CPU      0.02s WALL (       8 calls)

     Called by c_bands:
     init_us_2    :      1.71s CPU      1.72s WALL (    1140 calls)
     ccgdiagg     :     39.85s CPU     40.22s WALL (     480 calls)
     wfcrot       :      9.63s CPU      9.68s WALL (     420 calls)

     Called by *cgdiagg:
     h_psi        :     32.14s CPU     32.38s WALL (   13454 calls)
     s_psi        :      7.90s CPU      7.98s WALL (   26488 calls)

     Called by h_psi:
     h_psi:calbec :      5.73s CPU      5.76s WALL (   13454 calls)
     vloc_psi     :     21.68s CPU     21.87s WALL (   13454 calls)
                                        0.00s GPU  (   13454 calls)
     add_vuspsi   :      4.51s CPU      4.54s WALL (   13454 calls)
     hs_1psi      :     28.37s CPU     28.61s WALL (   13034 calls)
     s_1psi       :      8.18s CPU      8.27s WALL (   13034 calls)

     General routines
     calbec       :     13.70s CPU     13.79s WALL (   27988 calls)
     fft          :      0.30s CPU      0.31s WALL (     114 calls)
     ffts         :      0.01s CPU      0.01s WALL (       8 calls)
     fftw         :     21.25s CPU     21.42s WALL (   38428 calls)

     Parallel routines

     PWSCF        :   1m 2.75s CPU   1m 3.95s WALL


   This run was terminated on:  22:58:24  26Jan2026            

=------------------------------------------------------------------------------=
   JOB DONE.
=------------------------------------------------------------------------------=
