
     Program PWSCF v.7.5 starts on 26Jan2026 at 15:40:20 

     This program is part of the open-source Quantum ESPRESSO suite
     for quantum simulation of materials; please cite
         "P. Giannozzi et al., J. Phys.:Condens. Matter 21 395502 (2009);
         "P. Giannozzi et al., J. Phys.:Condens. Matter 29 465901 (2017);
         "P. Giannozzi et al., J. Chem. Phys. 152 154105 (2020);
          URL http://www.quantum-espresso.org", 
     in publications or presentations arising from this work. More details at
     http://www.quantum-espresso.org/quote

     Parallel version (MPI), running on     1 processors

     MPI processes distributed on     1 nodes
     25229 MiB available memory on the printing compute node when the environment starts

     Waiting for input...
     Reading input from standard input

     Current dimensions of program PWSCF are:
     Max number of different atomic species (ntypx) = 10
     Max number of k-points (npk) =  40000
     Max angular momentum in pseudopotentials (lmaxx) =  4
     file Ga.pbe-dn-kjpaw_psl.1.0.0.UPF: wavefunction(s)  4S renormalized
     file Al.pbe-n-kjpaw_psl.1.0.0.UPF: wavefunction(s)  3S 3P renormalized
     Message from routine volume:
     axis vectors are left-handed
     Message from routine setup:
     using ibrav=0 with symmetry is DISCOURAGED, use correct ibrav instead

     Subspace diagonalization in iterative solution of the eigenvalue problem:
     a serial algorithm will be used


     G-vector sticks info
     --------------------
     sticks:   dense  smooth     PW     G-vecs:    dense   smooth      PW
     Sum         547     547    163                 8363     8363    1459

     Using Slab Decomposition



     bravais-lattice index     =            0
     lattice parameter (alat)  =      10.6829  a.u.
     unit-cell volume          =     304.7984 (a.u.)^3
     number of atoms/cell      =            2
     number of atomic types    =            2
     number of electrons       =        16.00
     number of Kohn-Sham states=           12
     kinetic-energy cutoff     =      34.4444  Ry
     charge density cutoff     =     137.7778  Ry
     scf convergence threshold =      1.0E-06
     mixing beta               =       0.7000
     number of iterations used =            8  plain     mixing
     Exchange-correlation= SLA  PW   PBX  PBC
                           (   1   4   3   4   0   0   0)

     celldm(1)=  10.682943  celldm(2)=   0.000000  celldm(3)=   0.000000
     celldm(4)=   0.000000  celldm(5)=   0.000000  celldm(6)=   0.000000

     crystal axes: (cart. coord. in units of alat)
               a(1) = (   0.500000   0.500000   0.000000 )  
               a(2) = (   0.500000   0.000000   0.500000 )  
               a(3) = (   0.000000   0.500000   0.500000 )  

     reciprocal axes: (cart. coord. in units 2 pi/alat)
               b(1) = (  1.000000  1.000000 -1.000000 )  
               b(2) = (  1.000000 -1.000000  1.000000 )  
               b(3) = ( -1.000000  1.000000  1.000000 )  


     PseudoPot. # 1 for Ga read from file:
     /home/nico-sachs/source/q-e/SSSP_1.3.0_PBE_efficiency/Ga.pbe-dn-kjpaw_psl.1.0.0.UPF
     MD5 check sum: a27b4342b1af7e5f338de752e9ed7044
     Pseudo is Projector augmented-wave + core cor, Zval = 13.0
     Generated using "atomic" code by A. Dal Corso  v.5.1
     Shape of augmentation charge: PSQ
     Using radial grid of 1205 points,  6 beta functions with: 
                l(1) =   0
                l(2) =   0
                l(3) =   1
                l(4) =   1
                l(5) =   2
                l(6) =   2
     Q(r) pseudized with 0 coefficients 


     PseudoPot. # 2 for Al read from file:
     /home/nico-sachs/source/q-e/SSSP_1.3.0_PBE_efficiency/Al.pbe-n-kjpaw_psl.1.0.0.UPF
     MD5 check sum: cfc449ca30b5f3223ec38ddd88ac046d
     Pseudo is Projector augmented-wave + core cor, Zval =  3.0
     Generated using "atomic" code by A. Dal Corso  v.5.1
     Shape of augmentation charge: PSQ
     Using radial grid of 1135 points,  6 beta functions with: 
                l(1) =   0
                l(2) =   0
                l(3) =   1
                l(4) =   1
                l(5) =   2
                l(6) =   2
     Q(r) pseudized with 0 coefficients 


     atomic species   valence    mass     pseudopotential
     Ga               13.00    69.72300     Ga( 1.00)
     As                3.00    74.92100     Al( 1.00)

     24 Sym. Ops. (no inversion) found



   Cartesian axes

     site n.     atom                  positions (alat units)
         1        As     tau(   1) = (   0.2500000   0.2500000   0.2500000  )
         2        Ga     tau(   2) = (   0.0000000   0.0000000   0.0000000  )

     number of k points=    60  Marzari-Vanderbilt smearing, width (Ry)=  0.0500
                       cart. coord. in units 2pi/alat
        k(    1) = (   0.0625000   0.0625000   0.0625000), wk =   0.0078125
        k(    2) = (   0.0625000   0.0625000   0.1875000), wk =   0.0234375
        k(    3) = (   0.0625000   0.0625000   0.3125000), wk =   0.0234375
        k(    4) = (   0.0625000   0.0625000   0.4375000), wk =   0.0234375
        k(    5) = (   0.0625000   0.0625000   0.5625000), wk =   0.0234375
        k(    6) = (   0.0625000   0.0625000   0.6875000), wk =   0.0234375
        k(    7) = (   0.0625000   0.0625000   0.8125000), wk =   0.0234375
        k(    8) = (   0.0625000   0.0625000   0.9375000), wk =   0.0234375
        k(    9) = (   0.0625000   0.1875000   0.1875000), wk =   0.0234375
        k(   10) = (   0.0625000   0.1875000   0.3125000), wk =   0.0468750
        k(   11) = (   0.0625000   0.1875000   0.4375000), wk =   0.0468750
        k(   12) = (   0.0625000   0.1875000   0.5625000), wk =   0.0468750
        k(   13) = (   0.0625000   0.1875000   0.6875000), wk =   0.0468750
        k(   14) = (   0.0625000   0.1875000   0.8125000), wk =   0.0468750
        k(   15) = (   0.0625000   0.1875000   0.9375000), wk =   0.0468750
        k(   16) = (   0.0625000   0.3125000   0.3125000), wk =   0.0234375
        k(   17) = (   0.0625000   0.3125000   0.4375000), wk =   0.0468750
        k(   18) = (   0.0625000   0.3125000   0.5625000), wk =   0.0468750
        k(   19) = (   0.0625000   0.3125000   0.6875000), wk =   0.0468750
        k(   20) = (   0.0625000   0.3125000   0.8125000), wk =   0.0468750
        k(   21) = (   0.0625000   0.3125000   0.9375000), wk =   0.0468750
        k(   22) = (   0.0625000   0.4375000   0.4375000), wk =   0.0234375
        k(   23) = (   0.0625000   0.4375000   0.5625000), wk =   0.0468750
        k(   24) = (   0.0625000   0.4375000   0.6875000), wk =   0.0468750
        k(   25) = (   0.0625000   0.4375000   0.8125000), wk =   0.0468750
        k(   26) = (   0.0625000   0.4375000   0.9375000), wk =   0.0468750
        k(   27) = (   0.0625000   0.5625000   0.5625000), wk =   0.0234375
        k(   28) = (   0.0625000   0.5625000   0.6875000), wk =   0.0468750
        k(   29) = (   0.0625000   0.5625000   0.8125000), wk =   0.0468750
        k(   30) = (   0.0625000   0.6875000   0.6875000), wk =   0.0234375
        k(   31) = (   0.0625000   0.6875000   0.8125000), wk =   0.0468750
        k(   32) = (   0.0625000   0.8125000   0.8125000), wk =   0.0234375
        k(   33) = (   0.1875000   0.1875000   0.1875000), wk =   0.0078125
        k(   34) = (   0.1875000   0.1875000   0.3125000), wk =   0.0234375
        k(   35) = (   0.1875000   0.1875000   0.4375000), wk =   0.0234375
        k(   36) = (   0.1875000   0.1875000   0.5625000), wk =   0.0234375
        k(   37) = (   0.1875000   0.1875000   0.6875000), wk =   0.0234375
        k(   38) = (   0.1875000   0.1875000   0.8125000), wk =   0.0234375
        k(   39) = (   0.1875000   0.3125000   0.3125000), wk =   0.0234375
        k(   40) = (   0.1875000   0.3125000   0.4375000), wk =   0.0468750
        k(   41) = (   0.1875000   0.3125000   0.5625000), wk =   0.0468750
        k(   42) = (   0.1875000   0.3125000   0.6875000), wk =   0.0468750
        k(   43) = (   0.1875000   0.3125000   0.8125000), wk =   0.0468750
        k(   44) = (   0.1875000   0.4375000   0.4375000), wk =   0.0234375
        k(   45) = (   0.1875000   0.4375000   0.5625000), wk =   0.0468750
        k(   46) = (   0.1875000   0.4375000   0.6875000), wk =   0.0468750
        k(   47) = (   0.1875000   0.4375000   0.8125000), wk =   0.0468750
        k(   48) = (   0.1875000   0.5625000   0.5625000), wk =   0.0234375
        k(   49) = (   0.1875000   0.5625000   0.6875000), wk =   0.0468750
        k(   50) = (   0.1875000   0.6875000   0.6875000), wk =   0.0234375
        k(   51) = (   0.3125000   0.3125000   0.3125000), wk =   0.0078125
        k(   52) = (   0.3125000   0.3125000   0.4375000), wk =   0.0234375
        k(   53) = (   0.3125000   0.3125000   0.5625000), wk =   0.0234375
        k(   54) = (   0.3125000   0.3125000   0.6875000), wk =   0.0234375
        k(   55) = (   0.3125000   0.4375000   0.4375000), wk =   0.0234375
        k(   56) = (   0.3125000   0.4375000   0.5625000), wk =   0.0468750
        k(   57) = (   0.3125000   0.4375000   0.6875000), wk =   0.0468750
        k(   58) = (   0.3125000   0.5625000   0.5625000), wk =   0.0234375
        k(   59) = (   0.4375000   0.4375000   0.4375000), wk =   0.0078125
        k(   60) = (   0.4375000   0.4375000   0.5625000), wk =   0.0234375

     Dense  grid:     8363 G-vectors     FFT dimensions: (  30,  30,  30)

     Estimated max dynamical RAM per process >      45.31 MB

     Check: negative core charge=   -0.000007

     Initial potential from superposition of free atoms

     starting charge      15.9948, renormalised to      16.0000
     Starting wfcs are   13 randomized atomic wfcs
     Checking if some PAW data can be deallocated... 

     total cpu time spent up to now is        1.5 secs

     Self-consistent Calculation

     iteration #  1     ecut=    34.44 Ry     beta= 0.70
     CG style diagonalization
     ethr =  1.00E-02,  avg # of iterations =  3.0

     Threshold (ethr) on eigenvalues was too large:
     Diagonalizing with lowered threshold

     CG style diagonalization
     c_bands:  1 eigenvalues not converged
     c_bands:  1 eigenvalues not converged
     c_bands:  1 eigenvalues not converged
     c_bands:  1 eigenvalues not converged
     c_bands:  1 eigenvalues not converged
     c_bands:  1 eigenvalues not converged
     c_bands:  1 eigenvalues not converged
     c_bands:  1 eigenvalues not converged
     ethr =  4.73E-05,  avg # of iterations =  6.4

     total cpu time spent up to now is        6.8 secs

     total energy              =    -317.33511690 Ry
     estimated scf accuracy    <       0.00999091 Ry

     iteration #  2     ecut=    34.44 Ry     beta= 0.70
     CG style diagonalization
     ethr =  6.24E-05,  avg # of iterations =  3.0

     total cpu time spent up to now is        8.7 secs

     total energy              =    -317.33560561 Ry
     estimated scf accuracy    <       0.00075520 Ry

     iteration #  3     ecut=    34.44 Ry     beta= 0.70
     CG style diagonalization
     c_bands:  1 eigenvalues not converged
     c_bands:  1 eigenvalues not converged
     c_bands:  1 eigenvalues not converged
     ethr =  4.72E-06,  avg # of iterations =  5.2

     total cpu time spent up to now is       11.7 secs

     total energy              =    -317.33595220 Ry
     estimated scf accuracy    <       0.00009072 Ry

     iteration #  4     ecut=    34.44 Ry     beta= 0.70
     CG style diagonalization
     ethr =  5.67E-07,  avg # of iterations =  5.6

     total cpu time spent up to now is       14.9 secs

     total energy              =    -317.33605764 Ry
     estimated scf accuracy    <       0.00001300 Ry

     iteration #  5     ecut=    34.44 Ry     beta= 0.70
     CG style diagonalization
     ethr =  8.13E-08,  avg # of iterations =  6.4

     total cpu time spent up to now is       18.8 secs

     total energy              =    -317.33606321 Ry
     estimated scf accuracy    <       0.00006962 Ry

     iteration #  6     ecut=    34.44 Ry     beta= 0.70
     CG style diagonalization
     ethr =  8.13E-08,  avg # of iterations =  4.0

     total cpu time spent up to now is       21.3 secs

     total energy              =    -317.33607317 Ry
     estimated scf accuracy    <       0.00000113 Ry

     iteration #  7     ecut=    34.44 Ry     beta= 0.70
     CG style diagonalization
     ethr =  7.06E-09,  avg # of iterations =  5.0

     total cpu time spent up to now is       24.3 secs

     total energy              =    -317.33607444 Ry
     estimated scf accuracy    <       0.00000173 Ry

     iteration #  8     ecut=    34.44 Ry     beta= 0.70
     CG style diagonalization
     ethr =  7.06E-09,  avg # of iterations =  3.9

     total cpu time spent up to now is       26.7 secs

     End of self-consistent calculation

          k = 0.0625 0.0625 0.0625 (  1022 PWs)   bands (ev):

    -8.8378  -8.8369  -8.8369  -8.7762  -8.7762  -3.8343   7.6723   8.1687
     8.1687  10.7258  10.8045  10.8049

          k = 0.0625 0.0625 0.1875 (  1021 PWs)   bands (ev):

    -8.8394  -8.8346  -8.8343  -8.7774  -8.7751  -3.6999   6.8871   7.6436
     7.8776  10.4093  11.1472  11.4755

          k = 0.0625 0.0625 0.3125 (  1020 PWs)   bands (ev):

    -8.8429  -8.8298  -8.8295  -8.7798  -8.7729  -3.4321   6.0117   6.9878
     7.1500   9.8713  11.8940  12.4067

          k = 0.0625 0.0625 0.4375 (  1027 PWs)   bands (ev):

    -8.8473  -8.8234  -8.8231  -8.7832  -8.7702  -3.0335   5.0868   6.3700
     6.3760   9.3287  11.2659  13.1962

          k = 0.0625 0.0625 0.5625 (  1032 PWs)   bands (ev):

    -8.8521  -8.8164  -8.8161  -8.7872  -8.7672  -2.5091   4.0953   5.7185
     5.8481   8.8614  10.3703  14.2626

          k = 0.0625 0.0625 0.6875 (  1037 PWs)   bands (ev):

    -8.8564  -8.8099  -8.8095  -8.7912  -8.7646  -1.8687   3.0549   5.2286
     5.4448   8.4964   9.6807  15.3608

          k = 0.0625 0.0625 0.8125 (  1039 PWs)   bands (ev):

    -8.8597  -8.8048  -8.8043  -8.7944  -8.7626  -1.1369   2.0276   4.9081
     5.1712   8.2497   9.2256  16.3527

          k = 0.0625 0.0625 0.9375 (  1037 PWs)   bands (ev):

    -8.8615  -8.8020  -8.8015  -8.7962  -8.7615  -0.4256   1.1594   4.7494
     5.0333   8.1313   9.0002  17.1556

          k = 0.0625 0.1875 0.1875 (  1019 PWs)   bands (ev):

    -8.8390  -8.8340  -8.8325  -8.7772  -8.7751  -3.5663   6.0800   7.1995
     8.0671  10.7896  10.9871  11.3818

          k = 0.0625 0.1875 0.3125 (  1028 PWs)   bands (ev):

    -8.8413  -8.8301  -8.8289  -8.7789  -8.7733  -3.3006   5.2555   6.5386
     7.6316  10.5020  11.3799  12.1152

          k = 0.0625 0.1875 0.4375 (  1034 PWs)   bands (ev):

    -8.8452  -8.8245  -8.8234  -8.7818  -8.7707  -2.9059   4.4620   5.8945
     6.8464   9.9720  11.7221  12.3433

          k = 0.0625 0.1875 0.5625 (  1039 PWs)   bands (ev):

    -8.8495  -8.8187  -8.8165  -8.7854  -8.7679  -2.3883   3.6760   5.3141
     6.0515   9.4842  10.9610  13.1488

          k = 0.0625 0.1875 0.6875 (  1045 PWs)   bands (ev):

    -8.8534  -8.8131  -8.8098  -8.7891  -8.7656  -1.7598   2.8501   4.8139
     5.4346   9.0886  10.3553  14.0377

          k = 0.0625 0.1875 0.8125 (  1044 PWs)   bands (ev):

    -8.8564  -8.8086  -8.8046  -8.7922  -8.7640  -1.0498   1.9837   4.4408
     5.0539   8.8156   9.9684  14.9560

          k = 0.0625 0.1875 0.9375 (  1040 PWs)   bands (ev):

    -8.8580  -8.8059  -8.8018  -8.7939  -8.7632  -0.3806   1.2213   4.2471
     4.8767   8.6839   9.7810  15.8435

          k = 0.0625 0.3125 0.3125 (  1036 PWs)   bands (ev):

    -8.8404  -8.8288  -8.8273  -8.7782  -8.7734  -3.0397   4.4836   5.8909
     7.7273  10.9779  11.3925  11.7732

          k = 0.0625 0.3125 0.4375 (  1038 PWs)   bands (ev):

    -8.8421  -8.8252  -8.8235  -8.7795  -8.7718  -2.6537   3.7694   5.2723
     7.1845  10.9100  11.3336  12.5073

          k = 0.0625 0.3125 0.5625 (  1042 PWs)   bands (ev):

    -8.8451  -8.8219  -8.8169  -8.7824  -8.7696  -2.1515   3.1161   4.7371
     6.3206  10.4825  11.7666  12.0160

          k = 0.0625 0.3125 0.6875 (  1043 PWs)   bands (ev):

    -8.8481  -8.8183  -8.8102  -8.7857  -8.7678  -1.5500   2.4953   4.3063
     5.4654  10.1051  11.4295  12.5471

          k = 0.0625 0.3125 0.8125 (  1047 PWs)   bands (ev):

    -8.8505  -8.8149  -8.8049  -8.7886  -8.7667  -0.8904   1.8700   3.9864
     4.8295   9.8365  11.1034  13.3695

          k = 0.0625 0.3125 0.9375 (  1043 PWs)   bands (ev):

    -8.8518  -8.8128  -8.8020  -8.7903  -8.7661  -0.3124   1.3176   3.8047
     4.5139   9.7074  10.9447  14.2479

          k = 0.0625 0.4375 0.4375 (  1044 PWs)   bands (ev):

    -8.8405  -8.8244  -8.8222  -8.7776  -8.7732  -2.2840   3.1289   4.6792
     7.1150  10.5670  12.0941  12.3393

          k = 0.0625 0.4375 0.5625 (  1043 PWs)   bands (ev):

    -8.8414  -8.8235  -8.8169  -8.7788  -8.7725  -1.8102   2.5704   4.1855
     6.5078  10.5111  11.8207  13.1419

          k = 0.0625 0.4375 0.6875 (  1045 PWs)   bands (ev):

    -8.8431  -8.8222  -8.8104  -8.7821  -8.7708  -1.2602   2.0944   3.8207
     5.6266  10.8410  11.5770  12.8213

          k = 0.0625 0.4375 0.8125 (  1047 PWs)   bands (ev):

    -8.8447  -8.8207  -8.8051  -8.7852  -8.7695  -0.6933   1.6902   3.6098
     4.7955  11.0122  11.8271  12.5736

          k = 0.0625 0.4375 0.9375 (  1045 PWs)   bands (ev):

    -8.8455  -8.8196  -8.8021  -8.7872  -8.7688  -0.2603   1.3925   3.5583
     4.2518  10.9632  12.2052  12.7963

          k = 0.0625 0.5625 0.5625 (  1044 PWs)   bands (ev):

    -8.8412  -8.8219  -8.8152  -8.7770  -8.7747  -1.3879   2.1026   3.7398
     6.3967   9.7877  13.1053  13.2887

          k = 0.0625 0.5625 0.6875 (  1043 PWs)   bands (ev):

    -8.8430  -8.8206  -8.8103  -8.7811  -8.7720  -0.9291   1.7423   3.4527
     5.8096   9.7619  12.9162  14.1324

          k = 0.0625 0.5625 0.8125 (  1039 PWs)   bands (ev):

    -8.8446  -8.8200  -8.8051  -8.7849  -8.7699  -0.5143   1.5059   3.3793
     4.9829  10.2528  12.6736  13.4531

          k = 0.0625 0.6875 0.6875 (  1041 PWs)   bands (ev):

    -8.8465  -8.8158  -8.8088  -8.7843  -8.7699  -0.6211   1.4963   3.2841
     5.7508   9.0903  13.2665  14.3783

          k = 0.0625 0.6875 0.8125 (  1041 PWs)   bands (ev):

    -8.8499  -8.8135  -8.8050  -8.7881  -8.7675  -0.4078   1.3660   3.3939
     5.2404   9.1538  12.0094  14.3272

          k = 0.0625 0.8125 0.8125 (  1035 PWs)   bands (ev):

    -8.8551  -8.8077  -8.8040  -8.7917  -8.7648  -0.3775   1.2728   3.7031
     5.2796   8.5733  10.7686  15.8217

          k = 0.1875 0.1875 0.1875 (  1025 PWs)   bands (ev):

    -8.8390  -8.8322  -8.8322  -8.7759  -8.7759  -3.4339   5.2879   7.6562
     7.6562  10.3212  11.4161  11.4161

          k = 0.1875 0.1875 0.3125 (  1031 PWs)   bands (ev):

    -8.8407  -8.8297  -8.8286  -8.7777  -8.7737  -3.1708   4.4943   7.0934
     7.3861  10.4344  11.1798  12.0311

          k = 0.1875 0.1875 0.4375 (  1037 PWs)   bands (ev):

    -8.8439  -8.8252  -8.8235  -8.7803  -8.7709  -2.7810   3.7714   6.5354
     6.5686  10.1043  11.7875  12.6984

          k = 0.1875 0.1875 0.5625 (  1040 PWs)   bands (ev):

    -8.8476  -8.8199  -8.8177  -8.7836  -8.7684  -2.2721   3.1192   5.6119
     6.0507   9.5444  11.7609  12.8683

          k = 0.1875 0.1875 0.6875 (  1040 PWs)   bands (ev):

    -8.8510  -8.8145  -8.8117  -8.7870  -8.7664  -1.6598   2.5001   4.7172
     5.6708   9.0673  11.2543  13.9526

          k = 0.1875 0.1875 0.8125 (  1041 PWs)   bands (ev):

    -8.8537  -8.8102  -8.8068  -8.7899  -8.7653  -0.9821   1.8599   4.0457
     5.4109   8.7350  10.9249  15.0075

          k = 0.1875 0.3125 0.3125 (  1041 PWs)   bands (ev):

    -8.8407  -8.8282  -8.8272  -8.7767  -8.7736  -2.9137   3.7293   6.6713
     7.5263  10.3470  11.3806  11.7229

          k = 0.1875 0.3125 0.4375 (  1039 PWs)   bands (ev):

    -8.8421  -8.8255  -8.8238  -8.7780  -8.7717  -2.5351   3.0543   6.0748
     7.0691  10.5000  11.2413  12.1887

          k = 0.1875 0.3125 0.5625 (  1041 PWs)   bands (ev):

    -8.8445  -8.8223  -8.8184  -8.7806  -8.7696  -2.0470   2.4857   5.4187
     6.3353  10.0845  11.7887  12.8292

          k = 0.1875 0.3125 0.6875 (  1043 PWs)   bands (ev):

    -8.8469  -8.8187  -8.8127  -8.7836  -8.7682  -1.4741   2.0214   4.6439
     5.7482   9.6270  12.3470  12.6888

          k = 0.1875 0.3125 0.8125 (  1045 PWs)   bands (ev):

    -8.8489  -8.8155  -8.8078  -8.7864  -8.7676  -0.8745   1.6442   3.8791
     5.4011   9.3098  12.1429  13.4635

          k = 0.1875 0.4375 0.4375 (  1046 PWs)   bands (ev):

    -8.8414  -8.8242  -8.8230  -8.7760  -8.7727  -2.1783   2.4301   5.5397
     7.0960  10.4988  11.6125  11.6819

          k = 0.1875 0.4375 0.5625 (  1042 PWs)   bands (ev):

    -8.8419  -8.8235  -8.8186  -8.7772  -8.7719  -1.7312   1.9371   5.0078
     6.5626  10.5663  11.1869  12.7411

          k = 0.1875 0.4375 0.6875 (  1046 PWs)   bands (ev):

    -8.8431  -8.8224  -8.8130  -8.7801  -8.7706  -1.2378   1.6045   4.4661
     5.8175  10.6007  11.2323  13.7264

          k = 0.1875 0.4375 0.8125 (  1048 PWs)   bands (ev):

    -8.8441  -8.8210  -8.8080  -8.7831  -8.7700  -0.7868   1.4677   3.8710
     5.2469  10.3775  11.8892  13.5870

          k = 0.1875 0.5625 0.5625 (  1046 PWs)   bands (ev):

    -8.8417  -8.8224  -8.8171  -8.7759  -8.7735  -1.3639   1.5443   4.5797
     6.4731   9.9207  12.3415  12.4704

          k = 0.1875 0.5625 0.6875 (  1044 PWs)   bands (ev):

    -8.8429  -8.8215  -8.8128  -8.7795  -8.7714  -1.0179   1.3745   4.1997
     5.9390   9.9074  12.1019  13.7722

          k = 0.1875 0.6875 0.6875 (  1042 PWs)   bands (ev):

    -8.8459  -8.8175  -8.8114  -8.7827  -8.7694  -0.8942   1.4066   3.9699
     5.8656   9.2569  13.2846  13.6206

          k = 0.3125 0.3125 0.3125 (  1050 PWs)   bands (ev):

    -8.8413  -8.8267  -8.8267  -8.7743  -8.7743  -2.6656   2.9804   7.1846
     7.1847   9.9033  11.4927  11.4928

          k = 0.3125 0.3125 0.4375 (  1039 PWs)   bands (ev):

    -8.8423  -8.8253  -8.8240  -8.7757  -8.7718  -2.3047   2.3417   6.7875
     6.8570  10.1269  11.1434  11.7975

          k = 0.3125 0.3125 0.5625 (  1038 PWs)   bands (ev):

    -8.8435  -8.8231  -8.8201  -8.7777  -8.7700  -1.8519   1.8430   5.9687
     6.4054  10.0168  11.5628  12.2604

          k = 0.3125 0.3125 0.6875 (  1043 PWs)   bands (ev):

    -8.8448  -8.8203  -8.8156  -8.7803  -8.7693  -1.3515   1.5164   4.9378
     6.0895   9.5812  12.5097  12.8853

          k = 0.3125 0.4375 0.4375 (  1038 PWs)   bands (ev):

    -8.8425  -8.8240  -8.8238  -8.7739  -8.7722  -1.9807   1.7551   6.4475
     7.0429  10.0707  11.3349  11.3511

          k = 0.3125 0.4375 0.5625 (  1036 PWs)   bands (ev):

    -8.8427  -8.8236  -8.8208  -8.7749  -8.7713  -1.6026   1.3515   5.9176
     6.6528  10.3487  10.9759  11.9576

          k = 0.3125 0.4375 0.6875 (  1044 PWs)   bands (ev):

    -8.8428  -8.8227  -8.8168  -8.7772  -8.7710  -1.2490   1.2030   5.1218
     6.2115  10.1788  11.3548  12.8289

          k = 0.3125 0.5625 0.5625 (  1047 PWs)   bands (ev):

    -8.8425  -8.8230  -8.8200  -8.7742  -8.7721  -1.3728   1.1092   5.5940
     6.6085  10.1215  11.4405  11.8616

          k = 0.4375 0.4375 0.4375 (  1038 PWs)   bands (ev):

    -8.8432  -8.8238  -8.8238  -8.7721  -8.7721  -1.7281   1.2482   6.9327
     6.9328   9.7047  11.2612  11.2613

          k = 0.4375 0.4375 0.5625 (  1046 PWs)   bands (ev):

    -8.8432  -8.8235  -8.8225  -8.7728  -8.7714  -1.4955   1.0031   6.5205
     6.7759   9.9838  11.0820  11.4402

     the Fermi energy is     5.5640 ev

!    total energy              =    -317.33607495 Ry
     total all-electron energy =     -4373.643517 Ry
     estimated scf accuracy    <          2.1E-09 Ry
     smearing contrib. (-TS)   =      -0.00122320 Ry
     internal energy E=F+TS    =    -317.33485175 Ry

     The total energy is F=E-TS. E is the sum of the following terms:
     one-electron contribution =    -124.61922025 Ry
     hartree contribution      =      75.84092249 Ry
     xc contribution           =     -40.63616928 Ry
     ewald contribution        =     -82.24853885 Ry
     one-center paw contrib.   =    -145.67184586 Ry

     convergence has been achieved in   8 iterations

     Forces acting on atoms (cartesian axes, Ry/au):

     atom    1 type  2   force =     0.00000000   -0.00000000    0.00000000
     atom    2 type  1   force =    -0.00000000    0.00000000    0.00000000

     Total force =     0.000000     Total SCF correction =     0.000000


     Computing stress (Cartesian axis) and pressure

          total   stress  (Ry/bohr**3)                   (kbar)     P=       70.26
   0.00047759  -0.00000000  -0.00000000           70.26       -0.00       -0.00
  -0.00000000   0.00047759  -0.00000000           -0.00       70.26       -0.00
  -0.00000000  -0.00000000   0.00047759           -0.00       -0.00       70.26


     Writing all to output data dir /home/nico-sachs/source/q-e/tempdir/al.save/ :
     XML data file, charge density, pseudopotentials, collected wavefunctions

     init_run     :      1.31s CPU      1.37s WALL (       1 calls)
     electrons    :     24.61s CPU     25.11s WALL (       1 calls)
     forces       :      0.25s CPU      0.25s WALL (       1 calls)
     stress       :      1.12s CPU      1.12s WALL (       1 calls)

     Called by init_run:
     wfcinit      :      0.51s CPU      0.52s WALL (       1 calls)
     potinit      :      0.33s CPU      0.38s WALL (       1 calls)
     hinit0       :      0.42s CPU      0.42s WALL (       1 calls)

     Called by electrons:
     c_bands      :     20.07s CPU     20.54s WALL (       9 calls)
     sum_band     :      1.72s CPU      1.74s WALL (       9 calls)
     v_of_rho     :      0.06s CPU      0.06s WALL (       9 calls)
     newd         :      0.29s CPU      0.30s WALL (       9 calls)
     PAW_pot      :      2.80s CPU      2.85s WALL (       9 calls)
     mix_rho      :      0.01s CPU      0.01s WALL (       9 calls)

     Called by c_bands:
     init_us_2    :      0.33s CPU      0.34s WALL (    1260 calls)
     ccgdiagg     :     17.26s CPU     17.69s WALL (     540 calls)
     wfcrot       :      3.10s CPU      3.14s WALL (     480 calls)

     Called by *cgdiagg:
     h_psi        :     13.21s CPU     13.50s WALL (   25954 calls)
     s_psi        :      3.31s CPU      3.40s WALL (   51428 calls)

     Called by h_psi:
     h_psi:calbec :      2.34s CPU      2.39s WALL (   25954 calls)
     vloc_psi     :      8.84s CPU      9.04s WALL (   25954 calls)
                                        0.00s GPU  (   25954 calls)
     add_vuspsi   :      1.87s CPU      1.91s WALL (   25954 calls)
     hs_1psi      :     12.46s CPU     12.76s WALL (   25474 calls)
     s_1psi       :      3.57s CPU      3.66s WALL (   25474 calls)

     General routines
     calbec       :      5.28s CPU      5.40s WALL (   52988 calls)
     fft          :      0.14s CPU      0.14s WALL (     125 calls)
     ffts         :      0.00s CPU      0.00s WALL (       9 calls)
     fftw         :      8.37s CPU      8.55s WALL (   69068 calls)

     Parallel routines

     PWSCF        :     27.46s CPU     28.05s WALL


   This run was terminated on:  15:40:48  26Jan2026            

=------------------------------------------------------------------------------=
   JOB DONE.
=------------------------------------------------------------------------------=
