
     Program PWSCF v.7.5 starts on 26Jan2026 at 15:46:34 

     This program is part of the open-source Quantum ESPRESSO suite
     for quantum simulation of materials; please cite
         "P. Giannozzi et al., J. Phys.:Condens. Matter 21 395502 (2009);
         "P. Giannozzi et al., J. Phys.:Condens. Matter 29 465901 (2017);
         "P. Giannozzi et al., J. Chem. Phys. 152 154105 (2020);
          URL http://www.quantum-espresso.org", 
     in publications or presentations arising from this work. More details at
     http://www.quantum-espresso.org/quote

     Parallel version (MPI), running on     1 processors

     MPI processes distributed on     1 nodes
     25170 MiB available memory on the printing compute node when the environment starts

     Waiting for input...
     Reading input from standard input

     Current dimensions of program PWSCF are:
     Max number of different atomic species (ntypx) = 10
     Max number of k-points (npk) =  40000
     Max angular momentum in pseudopotentials (lmaxx) =  4
     file Ga.pbe-dn-kjpaw_psl.1.0.0.UPF: wavefunction(s)  4S renormalized
     file Al.pbe-n-kjpaw_psl.1.0.0.UPF: wavefunction(s)  3S 3P renormalized
     Message from routine volume:
     axis vectors are left-handed
     Message from routine setup:
     using ibrav=0 with symmetry is DISCOURAGED, use correct ibrav instead

     Subspace diagonalization in iterative solution of the eigenvalue problem:
     a serial algorithm will be used


     G-vector sticks info
     --------------------
     sticks:   dense  smooth     PW     G-vecs:    dense   smooth      PW
     Sum        1453    1453    421                36325    36325    5601

     Using Slab Decomposition



     bravais-lattice index     =            0
     lattice parameter (alat)  =      10.6829  a.u.
     unit-cell volume          =     304.7984 (a.u.)^3
     number of atoms/cell      =            2
     number of atomic types    =            2
     number of electrons       =        16.00
     number of Kohn-Sham states=           12
     kinetic-energy cutoff     =      92.2222  Ry
     charge density cutoff     =     368.8889  Ry
     scf convergence threshold =      1.0E-06
     mixing beta               =       0.7000
     number of iterations used =            8  plain     mixing
     Exchange-correlation= SLA  PW   PBX  PBC
                           (   1   4   3   4   0   0   0)

     celldm(1)=  10.682943  celldm(2)=   0.000000  celldm(3)=   0.000000
     celldm(4)=   0.000000  celldm(5)=   0.000000  celldm(6)=   0.000000

     crystal axes: (cart. coord. in units of alat)
               a(1) = (   0.500000   0.500000   0.000000 )  
               a(2) = (   0.500000   0.000000   0.500000 )  
               a(3) = (   0.000000   0.500000   0.500000 )  

     reciprocal axes: (cart. coord. in units 2 pi/alat)
               b(1) = (  1.000000  1.000000 -1.000000 )  
               b(2) = (  1.000000 -1.000000  1.000000 )  
               b(3) = ( -1.000000  1.000000  1.000000 )  


     PseudoPot. # 1 for Ga read from file:
     /home/nico-sachs/source/q-e/SSSP_1.3.0_PBE_efficiency/Ga.pbe-dn-kjpaw_psl.1.0.0.UPF
     MD5 check sum: a27b4342b1af7e5f338de752e9ed7044
     Pseudo is Projector augmented-wave + core cor, Zval = 13.0
     Generated using "atomic" code by A. Dal Corso  v.5.1
     Shape of augmentation charge: PSQ
     Using radial grid of 1205 points,  6 beta functions with: 
                l(1) =   0
                l(2) =   0
                l(3) =   1
                l(4) =   1
                l(5) =   2
                l(6) =   2
     Q(r) pseudized with 0 coefficients 


     PseudoPot. # 2 for Al read from file:
     /home/nico-sachs/source/q-e/SSSP_1.3.0_PBE_efficiency/Al.pbe-n-kjpaw_psl.1.0.0.UPF
     MD5 check sum: cfc449ca30b5f3223ec38ddd88ac046d
     Pseudo is Projector augmented-wave + core cor, Zval =  3.0
     Generated using "atomic" code by A. Dal Corso  v.5.1
     Shape of augmentation charge: PSQ
     Using radial grid of 1135 points,  6 beta functions with: 
                l(1) =   0
                l(2) =   0
                l(3) =   1
                l(4) =   1
                l(5) =   2
                l(6) =   2
     Q(r) pseudized with 0 coefficients 


     atomic species   valence    mass     pseudopotential
     Ga               13.00    69.72300     Ga( 1.00)
     As                3.00    74.92100     Al( 1.00)

     24 Sym. Ops. (no inversion) found



   Cartesian axes

     site n.     atom                  positions (alat units)
         1        As     tau(   1) = (   0.2500000   0.2500000   0.2500000  )
         2        Ga     tau(   2) = (   0.0000000   0.0000000   0.0000000  )

     number of k points=    60  Marzari-Vanderbilt smearing, width (Ry)=  0.0500
                       cart. coord. in units 2pi/alat
        k(    1) = (   0.0625000   0.0625000   0.0625000), wk =   0.0078125
        k(    2) = (   0.0625000   0.0625000   0.1875000), wk =   0.0234375
        k(    3) = (   0.0625000   0.0625000   0.3125000), wk =   0.0234375
        k(    4) = (   0.0625000   0.0625000   0.4375000), wk =   0.0234375
        k(    5) = (   0.0625000   0.0625000   0.5625000), wk =   0.0234375
        k(    6) = (   0.0625000   0.0625000   0.6875000), wk =   0.0234375
        k(    7) = (   0.0625000   0.0625000   0.8125000), wk =   0.0234375
        k(    8) = (   0.0625000   0.0625000   0.9375000), wk =   0.0234375
        k(    9) = (   0.0625000   0.1875000   0.1875000), wk =   0.0234375
        k(   10) = (   0.0625000   0.1875000   0.3125000), wk =   0.0468750
        k(   11) = (   0.0625000   0.1875000   0.4375000), wk =   0.0468750
        k(   12) = (   0.0625000   0.1875000   0.5625000), wk =   0.0468750
        k(   13) = (   0.0625000   0.1875000   0.6875000), wk =   0.0468750
        k(   14) = (   0.0625000   0.1875000   0.8125000), wk =   0.0468750
        k(   15) = (   0.0625000   0.1875000   0.9375000), wk =   0.0468750
        k(   16) = (   0.0625000   0.3125000   0.3125000), wk =   0.0234375
        k(   17) = (   0.0625000   0.3125000   0.4375000), wk =   0.0468750
        k(   18) = (   0.0625000   0.3125000   0.5625000), wk =   0.0468750
        k(   19) = (   0.0625000   0.3125000   0.6875000), wk =   0.0468750
        k(   20) = (   0.0625000   0.3125000   0.8125000), wk =   0.0468750
        k(   21) = (   0.0625000   0.3125000   0.9375000), wk =   0.0468750
        k(   22) = (   0.0625000   0.4375000   0.4375000), wk =   0.0234375
        k(   23) = (   0.0625000   0.4375000   0.5625000), wk =   0.0468750
        k(   24) = (   0.0625000   0.4375000   0.6875000), wk =   0.0468750
        k(   25) = (   0.0625000   0.4375000   0.8125000), wk =   0.0468750
        k(   26) = (   0.0625000   0.4375000   0.9375000), wk =   0.0468750
        k(   27) = (   0.0625000   0.5625000   0.5625000), wk =   0.0234375
        k(   28) = (   0.0625000   0.5625000   0.6875000), wk =   0.0468750
        k(   29) = (   0.0625000   0.5625000   0.8125000), wk =   0.0468750
        k(   30) = (   0.0625000   0.6875000   0.6875000), wk =   0.0234375
        k(   31) = (   0.0625000   0.6875000   0.8125000), wk =   0.0468750
        k(   32) = (   0.0625000   0.8125000   0.8125000), wk =   0.0234375
        k(   33) = (   0.1875000   0.1875000   0.1875000), wk =   0.0078125
        k(   34) = (   0.1875000   0.1875000   0.3125000), wk =   0.0234375
        k(   35) = (   0.1875000   0.1875000   0.4375000), wk =   0.0234375
        k(   36) = (   0.1875000   0.1875000   0.5625000), wk =   0.0234375
        k(   37) = (   0.1875000   0.1875000   0.6875000), wk =   0.0234375
        k(   38) = (   0.1875000   0.1875000   0.8125000), wk =   0.0234375
        k(   39) = (   0.1875000   0.3125000   0.3125000), wk =   0.0234375
        k(   40) = (   0.1875000   0.3125000   0.4375000), wk =   0.0468750
        k(   41) = (   0.1875000   0.3125000   0.5625000), wk =   0.0468750
        k(   42) = (   0.1875000   0.3125000   0.6875000), wk =   0.0468750
        k(   43) = (   0.1875000   0.3125000   0.8125000), wk =   0.0468750
        k(   44) = (   0.1875000   0.4375000   0.4375000), wk =   0.0234375
        k(   45) = (   0.1875000   0.4375000   0.5625000), wk =   0.0468750
        k(   46) = (   0.1875000   0.4375000   0.6875000), wk =   0.0468750
        k(   47) = (   0.1875000   0.4375000   0.8125000), wk =   0.0468750
        k(   48) = (   0.1875000   0.5625000   0.5625000), wk =   0.0234375
        k(   49) = (   0.1875000   0.5625000   0.6875000), wk =   0.0468750
        k(   50) = (   0.1875000   0.6875000   0.6875000), wk =   0.0234375
        k(   51) = (   0.3125000   0.3125000   0.3125000), wk =   0.0078125
        k(   52) = (   0.3125000   0.3125000   0.4375000), wk =   0.0234375
        k(   53) = (   0.3125000   0.3125000   0.5625000), wk =   0.0234375
        k(   54) = (   0.3125000   0.3125000   0.6875000), wk =   0.0234375
        k(   55) = (   0.3125000   0.4375000   0.4375000), wk =   0.0234375
        k(   56) = (   0.3125000   0.4375000   0.5625000), wk =   0.0468750
        k(   57) = (   0.3125000   0.4375000   0.6875000), wk =   0.0468750
        k(   58) = (   0.3125000   0.5625000   0.5625000), wk =   0.0234375
        k(   59) = (   0.4375000   0.4375000   0.4375000), wk =   0.0078125
        k(   60) = (   0.4375000   0.4375000   0.5625000), wk =   0.0234375

     Dense  grid:    36325 G-vectors     FFT dimensions: (  48,  48,  48)

     Estimated max dynamical RAM per process >     191.71 MB

     Initial potential from superposition of free atoms

     starting charge      15.9948, renormalised to      16.0000
     Starting wfcs are   13 randomized atomic wfcs
     Checking if some PAW data can be deallocated... 

     total cpu time spent up to now is        4.1 secs

     Self-consistent Calculation

     iteration #  1     ecut=    92.22 Ry     beta= 0.70
     CG style diagonalization
     ethr =  1.00E-02,  avg # of iterations =  3.1

     Threshold (ethr) on eigenvalues was too large:
     Diagonalizing with lowered threshold

     CG style diagonalization
     c_bands:  2 eigenvalues not converged
     c_bands:  1 eigenvalues not converged
     c_bands:  1 eigenvalues not converged
     c_bands:  1 eigenvalues not converged
     c_bands:  1 eigenvalues not converged
     c_bands:  1 eigenvalues not converged
     c_bands:  1 eigenvalues not converged
     c_bands:  1 eigenvalues not converged
     ethr =  4.70E-05,  avg # of iterations =  8.1

     total cpu time spent up to now is       33.3 secs

     total energy              =    -317.34931555 Ry
     estimated scf accuracy    <       0.01003554 Ry

     iteration #  2     ecut=    92.22 Ry     beta= 0.70
     CG style diagonalization
     ethr =  6.27E-05,  avg # of iterations =  3.0

     total cpu time spent up to now is       41.5 secs

     total energy              =    -317.34971105 Ry
     estimated scf accuracy    <       0.00083805 Ry

     iteration #  3     ecut=    92.22 Ry     beta= 0.70
     CG style diagonalization
     c_bands:  1 eigenvalues not converged
     c_bands:  1 eigenvalues not converged
     c_bands:  1 eigenvalues not converged
     ethr =  5.24E-06,  avg # of iterations =  5.2

     total cpu time spent up to now is       54.7 secs

     total energy              =    -317.35000045 Ry
     estimated scf accuracy    <       0.00000843 Ry

     iteration #  4     ecut=    92.22 Ry     beta= 0.70
     CG style diagonalization
     c_bands:  1 eigenvalues not converged
     c_bands:  1 eigenvalues not converged
     c_bands:  1 eigenvalues not converged
     c_bands:  1 eigenvalues not converged
     c_bands:  1 eigenvalues not converged
     c_bands:  2 eigenvalues not converged
     c_bands:  1 eigenvalues not converged
     c_bands:  1 eigenvalues not converged
     c_bands:  1 eigenvalues not converged
     c_bands:  1 eigenvalues not converged
     c_bands:  1 eigenvalues not converged
     c_bands:  1 eigenvalues not converged
     c_bands:  1 eigenvalues not converged
     c_bands:  1 eigenvalues not converged
     c_bands:  2 eigenvalues not converged
     c_bands:  1 eigenvalues not converged
     c_bands:  1 eigenvalues not converged
     c_bands:  1 eigenvalues not converged
     c_bands:  1 eigenvalues not converged
     c_bands:  1 eigenvalues not converged
     c_bands:  1 eigenvalues not converged
     c_bands:  1 eigenvalues not converged
     ethr =  5.27E-08,  avg # of iterations = 10.6

     total cpu time spent up to now is       80.4 secs

     total energy              =    -317.35025214 Ry
     estimated scf accuracy    <       0.00021564 Ry

     iteration #  5     ecut=    92.22 Ry     beta= 0.70
     CG style diagonalization
     c_bands:  1 eigenvalues not converged
     ethr =  5.27E-08,  avg # of iterations =  3.5

     total cpu time spent up to now is       89.6 secs

     total energy              =    -317.35022957 Ry
     estimated scf accuracy    <       0.00029580 Ry

     iteration #  6     ecut=    92.22 Ry     beta= 0.70
     CG style diagonalization
     c_bands:  1 eigenvalues not converged
     ethr =  5.27E-08,  avg # of iterations =  3.2

     total cpu time spent up to now is       98.2 secs

     total energy              =    -317.35013279 Ry
     estimated scf accuracy    <       0.00021672 Ry

     iteration #  7     ecut=    92.22 Ry     beta= 0.70
     CG style diagonalization
     ethr =  5.27E-08,  avg # of iterations =  7.4

     total cpu time spent up to now is      116.4 secs

     total energy              =    -317.35020875 Ry
     estimated scf accuracy    <       0.00023888 Ry

     iteration #  8     ecut=    92.22 Ry     beta= 0.70
     CG style diagonalization
     ethr =  5.27E-08,  avg # of iterations =  3.2

     total cpu time spent up to now is      124.8 secs

     total energy              =    -317.35014795 Ry
     estimated scf accuracy    <       0.00015650 Ry

     iteration #  9     ecut=    92.22 Ry     beta= 0.70
     CG style diagonalization
     ethr =  5.27E-08,  avg # of iterations =  7.4

     total cpu time spent up to now is      143.0 secs

     total energy              =    -317.35016457 Ry
     estimated scf accuracy    <       0.00058992 Ry

     iteration # 10     ecut=    92.22 Ry     beta= 0.70
     CG style diagonalization
     ethr =  5.27E-08,  avg # of iterations =  5.2

     total cpu time spent up to now is      156.2 secs

     total energy              =    -317.35017708 Ry
     estimated scf accuracy    <       0.00011953 Ry

     iteration # 11     ecut=    92.22 Ry     beta= 0.70
     CG style diagonalization
     ethr =  5.27E-08,  avg # of iterations =  4.3

     total cpu time spent up to now is      167.1 secs

     total energy              =    -317.35017684 Ry
     estimated scf accuracy    <       0.00005183 Ry

     iteration # 12     ecut=    92.22 Ry     beta= 0.70
     CG style diagonalization
     ethr =  5.27E-08,  avg # of iterations =  3.7

     total cpu time spent up to now is      176.7 secs

     total energy              =    -317.35018565 Ry
     estimated scf accuracy    <       0.00001713 Ry

     iteration # 13     ecut=    92.22 Ry     beta= 0.70
     CG style diagonalization
     ethr =  5.27E-08,  avg # of iterations =  3.2

     total cpu time spent up to now is      185.2 secs

     total energy              =    -317.35018631 Ry
     estimated scf accuracy    <       0.00003264 Ry

     iteration # 14     ecut=    92.22 Ry     beta= 0.70
     CG style diagonalization
     ethr =  5.27E-08,  avg # of iterations =  3.0

     total cpu time spent up to now is      193.3 secs

     total energy              =    -317.35018179 Ry
     estimated scf accuracy    <       0.00003255 Ry

     iteration # 15     ecut=    92.22 Ry     beta= 0.70
     CG style diagonalization
     ethr =  5.27E-08,  avg # of iterations =  3.0

     total cpu time spent up to now is      201.4 secs

     total energy              =    -317.35017547 Ry
     estimated scf accuracy    <       0.00001580 Ry

     iteration # 16     ecut=    92.22 Ry     beta= 0.70
     CG style diagonalization
     ethr =  5.27E-08,  avg # of iterations =  4.8

     total cpu time spent up to now is      213.5 secs

     total energy              =    -317.35018600 Ry
     estimated scf accuracy    <       0.00000713 Ry

     iteration # 17     ecut=    92.22 Ry     beta= 0.70
     CG style diagonalization
     ethr =  4.46E-08,  avg # of iterations =  4.1

     total cpu time spent up to now is      224.0 secs

     total energy              =    -317.35018284 Ry
     estimated scf accuracy    <       0.00002379 Ry

     iteration # 18     ecut=    92.22 Ry     beta= 0.70
     CG style diagonalization
     ethr =  4.46E-08,  avg # of iterations =  3.3

     total cpu time spent up to now is      232.6 secs

     total energy              =    -317.35018514 Ry
     estimated scf accuracy    <       0.00000178 Ry

     iteration # 19     ecut=    92.22 Ry     beta= 0.70
     CG style diagonalization
     ethr =  1.11E-08,  avg # of iterations =  3.1

     total cpu time spent up to now is      240.9 secs

     total energy              =    -317.35018470 Ry
     estimated scf accuracy    <       0.00000613 Ry

     iteration # 20     ecut=    92.22 Ry     beta= 0.70
     CG style diagonalization
     ethr =  1.11E-08,  avg # of iterations =  3.0

     total cpu time spent up to now is      248.9 secs

     total energy              =    -317.35018649 Ry
     estimated scf accuracy    <       0.00000405 Ry

     iteration # 21     ecut=    92.22 Ry     beta= 0.70
     CG style diagonalization
     ethr =  1.11E-08,  avg # of iterations =  3.1

     total cpu time spent up to now is      257.1 secs

     total energy              =    -317.35018789 Ry
     estimated scf accuracy    <       0.00000943 Ry

     iteration # 22     ecut=    92.22 Ry     beta= 0.70
     CG style diagonalization
     ethr =  1.11E-08,  avg # of iterations =  3.1

     total cpu time spent up to now is      265.4 secs

     total energy              =    -317.35018191 Ry
     estimated scf accuracy    <       0.00001389 Ry

     iteration # 23     ecut=    92.22 Ry     beta= 0.70
     CG style diagonalization
     ethr =  1.11E-08,  avg # of iterations =  4.0

     total cpu time spent up to now is      275.6 secs

     End of self-consistent calculation

          k = 0.0625 0.0625 0.0625 (  4594 PWs)   bands (ev):

    -9.0452  -9.0443  -9.0443  -8.9827  -8.9827  -3.8336   7.5834   8.0752
     8.0753  10.4586  10.5097  10.5098

          k = 0.0625 0.0625 0.1875 (  4581 PWs)   bands (ev):

    -9.0467  -9.0420  -9.0418  -8.9838  -8.9815  -3.6994   6.8086   7.5514
     7.7860  10.1397  10.9029  11.1809

          k = 0.0625 0.0625 0.3125 (  4564 PWs)   bands (ev):

    -9.0501  -9.0373  -9.0371  -8.9862  -8.9794  -3.4323   5.9473   6.9098
     7.0650   9.6144  11.6944  12.1049

          k = 0.0625 0.0625 0.4375 (  4576 PWs)   bands (ev):

    -9.0544  -9.0311  -9.0308  -8.9895  -8.9768  -3.0348   5.0335   6.3082
     6.3124   9.0866  10.9758  13.0907

          k = 0.0625 0.0625 0.5625 (  4576 PWs)   bands (ev):

    -9.0591  -9.0242  -9.0239  -8.9934  -8.9739  -2.5121   4.0502   5.6707
     5.8091   8.6298  10.0559  14.1081

          k = 0.0625 0.0625 0.6875 (  4578 PWs)   bands (ev):

    -9.0633  -9.0178  -9.0174  -8.9972  -8.9713  -1.8741   3.0177   5.1964
     5.4204   8.2741   9.3568  15.1067

          k = 0.0625 0.0625 0.8125 (  4559 PWs)   bands (ev):

    -9.0665  -9.0128  -9.0124  -9.0003  -8.9693  -1.1456   1.9977   4.8852
     5.1566   8.0338   8.8956  16.1094

          k = 0.0625 0.0625 0.9375 (  4540 PWs)   bands (ev):

    -9.0683  -9.0101  -9.0096  -9.0021  -8.9683  -0.4378   1.1353   4.7312
     5.0234   7.9131   8.6679  17.0448

          k = 0.0625 0.1875 0.1875 (  4573 PWs)   bands (ev):

    -9.0463  -9.0415  -9.0400  -8.9837  -8.9816  -3.5663   6.0121   7.1088
     7.9758  10.5693  10.7106  11.1106

          k = 0.0625 0.1875 0.3125 (  4565 PWs)   bands (ev):

    -9.0486  -9.0377  -9.0364  -8.9853  -8.9798  -3.3013   5.2006   6.4584
     7.5470  10.2578  11.1695  11.8299

          k = 0.0625 0.1875 0.4375 (  4571 PWs)   bands (ev):

    -9.0523  -9.0321  -9.0310  -8.9881  -8.9773  -2.9078   4.4179   5.8292
     6.7756   9.7413  11.4605  12.0440

          k = 0.0625 0.1875 0.5625 (  4569 PWs)   bands (ev):

    -9.0565  -9.0264  -9.0243  -8.9916  -8.9746  -2.3919   3.6387   5.2628
     5.9996   9.2630  10.6502  12.8844

          k = 0.0625 0.1875 0.6875 (  4563 PWs)   bands (ev):

    -9.0603  -9.0209  -9.0178  -8.9952  -8.9723  -1.7659   2.8169   4.7743
     5.3990   8.8743  10.0445  13.7745

          k = 0.0625 0.1875 0.8125 (  4558 PWs)   bands (ev):

    -9.0632  -9.0165  -9.0127  -8.9982  -8.9707  -1.0588   1.9536   4.4104
     5.0280   8.6023   9.6573  14.7037

          k = 0.0625 0.1875 0.9375 (  4552 PWs)   bands (ev):

    -9.0648  -9.0139  -9.0099  -8.9999  -8.9700  -0.3919   1.1937   4.2210
     4.8549   8.4625   9.4698  15.6495

          k = 0.0625 0.3125 0.3125 (  4578 PWs)   bands (ev):

    -9.0476  -9.0364  -9.0348  -8.9846  -8.9799  -3.0412   4.4385   5.8198
     7.6464  10.7751  11.1385  11.4965

          k = 0.0625 0.3125 0.4375 (  4573 PWs)   bands (ev):

    -9.0492  -9.0328  -9.0312  -8.9859  -8.9784  -2.6567   3.7325   5.2127
     7.1120  10.7113  11.0519  12.2767

          k = 0.0625 0.3125 0.5625 (  4564 PWs)   bands (ev):

    -9.0522  -9.0295  -9.0247  -8.9887  -8.9763  -2.1565   3.0841   4.6902
     6.2588  10.2742  11.4382  11.7723

          k = 0.0625 0.3125 0.6875 (  4559 PWs)   bands (ev):

    -9.0551  -9.0260  -9.0181  -8.9919  -8.9745  -1.5577   2.4642   4.2693
     5.4164   9.8945  11.1038  12.2985

          k = 0.0625 0.3125 0.8125 (  4549 PWs)   bands (ev):

    -9.0574  -9.0227  -9.0129  -8.9947  -8.9733  -0.9002   1.8379   3.9576
     4.7910   9.6288  10.7850  13.1189

          k = 0.0625 0.3125 0.9375 (  4552 PWs)   bands (ev):

    -9.0587  -9.0207  -9.0101  -8.9965  -8.9728  -0.3223   1.2828   3.7805
     4.4800   9.4931  10.6266  14.0269

          k = 0.0625 0.4375 0.4375 (  4564 PWs)   bands (ev):

    -9.0476  -9.0319  -9.0299  -8.9840  -8.9798  -2.2887   3.0973   4.6310
     7.0501  10.3325  11.8428  12.1028

          k = 0.0625 0.4375 0.5625 (  4561 PWs)   bands (ev):

    -9.0484  -9.0311  -9.0247  -8.9852  -8.9791  -1.8174   2.5407   4.1463
     6.4492  10.2737  11.5659  12.9176

          k = 0.0625 0.4375 0.6875 (  4555 PWs)   bands (ev):

    -9.0501  -9.0299  -9.0184  -8.9884  -8.9774  -1.2696   2.0637   3.7903
     5.5741  10.6273  11.3002  12.5284

          k = 0.0625 0.4375 0.8125 (  4551 PWs)   bands (ev):

    -9.0516  -9.0284  -9.0131  -8.9915  -8.9761  -0.7039   1.6553   3.5867
     4.7513  10.8103  11.5159  12.2995

          k = 0.0625 0.4375 0.9375 (  4554 PWs)   bands (ev):

    -9.0525  -9.0274  -9.0102  -8.9934  -8.9755  -0.2691   1.3510   3.5404
     4.2120  10.7473  11.8534  12.5857

          k = 0.0625 0.5625 0.5625 (  4553 PWs)   bands (ev):

    -9.0482  -9.0296  -9.0230  -8.9835  -8.9812  -1.3974   2.0731   3.7089
     6.3499   9.5387  12.8445  13.0717

          k = 0.0625 0.5625 0.6875 (  4541 PWs)   bands (ev):

    -9.0499  -9.0283  -9.0182  -8.9875  -8.9786  -0.9402   1.7110   3.4286
     5.7652   9.5141  12.6516  13.9148

          k = 0.0625 0.5625 0.8125 (  4542 PWs)   bands (ev):

    -9.0516  -9.0277  -9.0132  -8.9912  -8.9765  -0.5253   1.4690   3.3593
     4.9401  10.0159  12.3787  13.1855

          k = 0.0625 0.6875 0.6875 (  4542 PWs)   bands (ev):

    -9.0534  -9.0235  -9.0168  -8.9906  -8.9765  -0.6330   1.4629   3.2638
     5.7206   8.8340  12.9205  14.1104

          k = 0.0625 0.6875 0.8125 (  4546 PWs)   bands (ev):

    -9.0568  -9.0213  -9.0130  -8.9943  -8.9741  -0.4188   1.3312   3.3727
     5.2092   8.9092  11.6947  14.1098

          k = 0.0625 0.8125 0.8125 (  4553 PWs)   bands (ev):

    -9.0619  -9.0156  -9.0121  -8.9978  -8.9715  -0.3888   1.2417   3.6780
     5.2623   8.3207  10.4684  15.5817

          k = 0.1875 0.1875 0.1875 (  4555 PWs)   bands (ev):

    -9.0463  -9.0396  -9.0396  -8.9824  -8.9824  -3.4342   5.2296   7.5705
     7.5707  10.1125  11.1324  11.1324

          k = 0.1875 0.1875 0.3125 (  4573 PWs)   bands (ev):

    -9.0479  -9.0372  -9.0361  -8.9841  -8.9802  -3.1720   4.4472   7.0195
     7.3002  10.2237  10.9201  11.7259

          k = 0.1875 0.1875 0.4375 (  4584 PWs)   bands (ev):

    -9.0510  -9.0328  -9.0311  -8.9867  -8.9776  -2.7835   3.7343   6.4775
     6.4907   9.8687  11.5825  12.3707

          k = 0.1875 0.1875 0.5625 (  4568 PWs)   bands (ev):

    -9.0546  -9.0275  -9.0254  -8.9899  -8.9751  -2.2766   3.0882   5.5485
     6.0085   9.3027  11.4570  13.0665

          k = 0.1875 0.1875 0.6875 (  4560 PWs)   bands (ev):

    -9.0580  -9.0223  -9.0196  -8.9932  -8.9731  -1.6670   2.4710   4.6701
     5.6410   8.8221  10.9499  13.8351

          k = 0.1875 0.1875 0.8125 (  4553 PWs)   bands (ev):

    -9.0605  -9.0181  -9.0148  -8.9961  -8.9720  -0.9920   1.8303   4.0131
     5.3897   8.4891  10.6264  14.6933

          k = 0.1875 0.3125 0.3125 (  4575 PWs)   bands (ev):

    -9.0479  -9.0357  -9.0347  -8.9832  -8.9802  -2.9159   3.6922   6.6000
     7.4535  10.1516  11.0915  11.4159

          k = 0.1875 0.3125 0.4375 (  4574 PWs)   bands (ev):

    -9.0493  -9.0331  -9.0313  -8.9845  -8.9784  -2.5390   3.0246   6.0117
     7.0019  10.2877  10.9591  11.8819

          k = 0.1875 0.3125 0.5625 (  4565 PWs)   bands (ev):

    -9.0515  -9.0299  -9.0261  -8.9870  -8.9763  -2.0533   2.4609   5.3628
     6.2807   9.8456  11.5118  12.6027

          k = 0.1875 0.3125 0.6875 (  4552 PWs)   bands (ev):

    -9.0539  -9.0264  -9.0205  -8.9899  -8.9749  -1.4832   1.9977   4.5977
     5.7068   9.3875  12.0023  12.4706

          k = 0.1875 0.3125 0.8125 (  4550 PWs)   bands (ev):

    -9.0558  -9.0233  -9.0157  -8.9926  -8.9743  -0.8856   1.6167   3.8468
     5.3671   9.0692  11.8242  13.2176

          k = 0.1875 0.4375 0.4375 (  4565 PWs)   bands (ev):

    -9.0484  -9.0317  -9.0306  -8.9826  -8.9794  -2.1844   2.4068   5.4826
     7.0374  10.2819  11.3379  11.3795

          k = 0.1875 0.4375 0.5625 (  4557 PWs)   bands (ev):

    -9.0490  -9.0311  -9.0263  -8.9837  -8.9786  -1.7401   1.9174   4.9577
     6.5069  10.3496  10.8876  12.4598

          k = 0.1875 0.4375 0.6875 (  4552 PWs)   bands (ev):

    -9.0501  -9.0300  -9.0208  -8.9866  -8.9773  -1.2491   1.5850   4.4241
     5.7668  10.3902  10.9342  13.5234

          k = 0.1875 0.4375 0.8125 (  4551 PWs)   bands (ev):

    -9.0510  -9.0287  -9.0160  -8.9894  -8.9767  -0.7990   1.4424   3.8400
     5.2022  10.1486  11.6100  13.3032

          k = 0.1875 0.5625 0.5625 (  4553 PWs)   bands (ev):

    -9.0487  -9.0300  -9.0249  -8.9825  -8.9801  -1.3752   1.5276   4.5361
     6.4256   9.6751  12.1099  12.1464

          k = 0.1875 0.5625 0.6875 (  4548 PWs)   bands (ev):

    -9.0499  -9.0291  -9.0207  -8.9860  -8.9780  -1.0311   1.3562   4.1610
     5.8941   9.6622  11.8274  13.4951

          k = 0.1875 0.6875 0.6875 (  4548 PWs)   bands (ev):

    -9.0528  -9.0252  -9.0193  -8.9891  -8.9761  -0.9072   1.3854   3.9341
     5.8327   9.0023  12.9199  13.2919

          k = 0.3125 0.3125 0.3125 (  4573 PWs)   bands (ev):

    -9.0484  -9.0342  -9.0342  -8.9809  -8.9809  -2.6691   2.9524   7.1212
     7.1213   9.7044  11.1745  11.1751

          k = 0.3125 0.3125 0.4375 (  4566 PWs)   bands (ev):

    -9.0493  -9.0329  -9.0315  -8.9822  -8.9785  -2.3107   2.3198   6.7322
     6.7913   9.9238  10.8313  11.4514

          k = 0.3125 0.3125 0.5625 (  4566 PWs)   bands (ev):

    -9.0505  -9.0307  -9.0277  -8.9843  -8.9768  -1.8608   1.8258   5.9053
     6.3594   9.7738  11.3001  11.9116

          k = 0.3125 0.3125 0.6875 (  4548 PWs)   bands (ev):

    -9.0518  -9.0279  -9.0233  -8.9868  -8.9760  -1.3628   1.5006   4.8871
     6.0504   9.3317  12.2525  12.5334

          k = 0.3125 0.4375 0.4375 (  4560 PWs)   bands (ev):

    -9.0495  -9.0315  -9.0313  -8.9805  -8.9789  -1.9896   1.7399   6.3902
     6.9899   9.8670  11.0046  11.0164

          k = 0.3125 0.4375 0.5625 (  4548 PWs)   bands (ev):

    -9.0497  -9.0311  -9.0284  -8.9815  -8.9781  -1.6148   1.3407   5.8602
     6.6018  10.1507  10.6451  11.6251

          k = 0.3125 0.4375 0.6875 (  4540 PWs)   bands (ev):

    -9.0498  -9.0302  -9.0245  -8.9837  -8.9777  -1.2629   1.1922   5.0711
     6.1642   9.9422  11.0732  12.5185

          k = 0.3125 0.5625 0.5625 (  4540 PWs)   bands (ev):

    -9.0495  -9.0305  -9.0276  -8.9809  -8.9788  -1.3867   1.1017   5.5402
     6.5622   9.8868  11.1797  11.5198

          k = 0.4375 0.4375 0.4375 (  4545 PWs)   bands (ev):

    -9.0502  -9.0313  -9.0313  -8.9788  -8.9788  -1.7405   1.2401   6.8851
     6.8852   9.4904  10.9114  10.9114

          k = 0.4375 0.4375 0.5625 (  4548 PWs)   bands (ev):

    -9.0501  -9.0310  -9.0300  -8.9795  -8.9782  -1.5100   0.9987   6.4665
     6.7298   9.7862  10.7540  11.0901

     the Fermi energy is     5.5193 ev

!    total energy              =    -317.35018369 Ry
     total all-electron energy =     -4373.657626 Ry
     estimated scf accuracy    <       0.00000003 Ry
     smearing contrib. (-TS)   =      -0.00133577 Ry
     internal energy E=F+TS    =    -317.34884792 Ry

     The total energy is F=E-TS. E is the sum of the following terms:
     one-electron contribution =    -124.51743459 Ry
     hartree contribution      =      75.76441624 Ry
     xc contribution           =     -40.61885064 Ry
     ewald contribution        =     -82.24853881 Ry
     one-center paw contrib.   =    -145.72844012 Ry

     convergence has been achieved in  23 iterations

     Forces acting on atoms (cartesian axes, Ry/au):

     atom    1 type  2   force =     0.00000000   -0.00000000   -0.00000000
     atom    2 type  1   force =    -0.00000000    0.00000000    0.00000000

     Total force =     0.000000     Total SCF correction =     0.000000


     Computing stress (Cartesian axis) and pressure

          total   stress  (Ry/bohr**3)                   (kbar)     P=       72.05
   0.00048982   0.00000000   0.00000000           72.05        0.00        0.00
   0.00000000   0.00048982   0.00000000            0.00       72.05        0.00
   0.00000000   0.00000000   0.00048982            0.00        0.00       72.05


     Writing all to output data dir /home/nico-sachs/source/q-e/tempdir/al.save/ :
     XML data file, charge density, pseudopotentials, collected wavefunctions

     init_run     :      3.83s CPU      3.97s WALL (       1 calls)
     electrons    :    266.30s CPU    271.46s WALL (       1 calls)
     forces       :      1.09s CPU      1.16s WALL (       1 calls)
     stress       :      4.96s CPU      5.14s WALL (       1 calls)

     Called by init_run:
     wfcinit      :      2.47s CPU      2.48s WALL (       1 calls)
     potinit      :      0.40s CPU      0.44s WALL (       1 calls)
     hinit0       :      0.77s CPU      0.77s WALL (       1 calls)

     Called by electrons:
     c_bands      :    231.81s CPU    233.00s WALL (      24 calls)
     sum_band     :     22.83s CPU     24.74s WALL (      24 calls)
     v_of_rho     :      0.77s CPU      0.80s WALL (      24 calls)
     newd         :      3.61s CPU      5.21s WALL (      24 calls)
     PAW_pot      :      7.62s CPU      8.17s WALL (      24 calls)
     mix_rho      :      0.13s CPU      0.13s WALL (      24 calls)

     Called by c_bands:
     init_us_2    :      3.90s CPU      3.93s WALL (    3060 calls)
     ccgdiagg     :    190.48s CPU    191.57s WALL (    1440 calls)
     wfcrot       :     41.37s CPU     41.47s WALL (    1380 calls)

     Called by *cgdiagg:
     h_psi        :    156.65s CPU    157.33s WALL (   61437 calls)
     s_psi        :     36.04s CPU     36.29s WALL (  121494 calls)

     Called by h_psi:
     h_psi:calbec :     26.44s CPU     26.51s WALL (   61437 calls)
     vloc_psi     :    108.83s CPU    109.36s WALL (   61437 calls)
                                        0.00s GPU  (   61437 calls)
     add_vuspsi   :     20.69s CPU     20.77s WALL (   61437 calls)
     hs_1psi      :    140.61s CPU    141.31s WALL (   60057 calls)
     s_1psi       :     37.50s CPU     37.77s WALL (   60057 calls)

     General routines
     calbec       :     55.03s CPU     55.30s WALL (  123954 calls)
     fft          :      0.51s CPU      0.52s WALL (     290 calls)
     ffts         :      0.02s CPU      0.02s WALL (      24 calls)
     fftw         :    105.55s CPU    106.02s WALL (  170634 calls)

     Parallel routines

     PWSCF        :   4m36.37s CPU   4m41.97s WALL


   This run was terminated on:  15:51:16  26Jan2026            

=------------------------------------------------------------------------------=
   JOB DONE.
=------------------------------------------------------------------------------=
