
     Program PWSCF v.7.5 starts on 27Jan2026 at 14:15:12 

     This program is part of the open-source Quantum ESPRESSO suite
     for quantum simulation of materials; please cite
         "P. Giannozzi et al., J. Phys.:Condens. Matter 21 395502 (2009);
         "P. Giannozzi et al., J. Phys.:Condens. Matter 29 465901 (2017);
         "P. Giannozzi et al., J. Chem. Phys. 152 154105 (2020);
          URL http://www.quantum-espresso.org", 
     in publications or presentations arising from this work. More details at
     http://www.quantum-espresso.org/quote

     Parallel version (MPI), running on     4 processors

     MPI processes distributed on     1 nodes
     23666 MiB available memory on the printing compute node when the environment starts

     Waiting for input...
     Reading input from standard input

     Current dimensions of program PWSCF are:
     Max number of different atomic species (ntypx) = 10
     Max number of k-points (npk) =  40000
     Max angular momentum in pseudopotentials (lmaxx) =  4
     file Ga.pbe-dn-kjpaw_psl.1.0.0.UPF: wavefunction(s)  4S renormalized

     R & G space division:  proc/nbgrp/npool/nimage =       4
     Subspace diagonalization in iterative solution of the eigenvalue problem:
     a serial algorithm will be used


     Parallelization info
     --------------------
     sticks:   dense  smooth     PW     G-vecs:    dense   smooth      PW
     Min         238     228     63                 9570     8896    1397
     Max         239     229     64                 9575     8901    1406
     Sum         955     913    253                38287    35591    5599

     Using Slab Decomposition



     bravais-lattice index     =            4
     lattice parameter (alat)  =       6.0263  a.u.
     unit-cell volume          =     308.1662 (a.u.)^3
     number of atoms/cell      =            4
     number of atomic types    =            2
     number of electrons       =        36.00
     number of Kohn-Sham states=           18
     kinetic-energy cutoff     =      90.0000  Ry
     charge density cutoff     =     377.7778  Ry
     scf convergence threshold =      1.0E-06
     mixing beta               =       0.7000
     number of iterations used =            8  plain     mixing
     Exchange-correlation= PBE
                           (   1   4   3   4   0   0   0)

     celldm(1)=   6.026337  celldm(2)=   0.000000  celldm(3)=   1.625902
     celldm(4)=   0.000000  celldm(5)=   0.000000  celldm(6)=   0.000000

     crystal axes: (cart. coord. in units of alat)
               a(1) = (   1.000000   0.000000   0.000000 )  
               a(2) = (  -0.500000   0.866025   0.000000 )  
               a(3) = (   0.000000   0.000000   1.625902 )  

     reciprocal axes: (cart. coord. in units 2 pi/alat)
               b(1) = (  1.000000  0.577350 -0.000000 )  
               b(2) = (  0.000000  1.154701  0.000000 )  
               b(3) = (  0.000000 -0.000000  0.615043 )  


     PseudoPot. # 1 for Ga read from file:
     /home/nico-sachs/source/q-e/SSSP_1.3.0_PBE_efficiency/Ga.pbe-dn-kjpaw_psl.1.0.0.UPF
     MD5 check sum: a27b4342b1af7e5f338de752e9ed7044
     Pseudo is Projector augmented-wave + core cor, Zval = 13.0
     Generated using "atomic" code by A. Dal Corso  v.5.1
     Shape of augmentation charge: PSQ
     Using radial grid of 1205 points,  6 beta functions with: 
                l(1) =   0
                l(2) =   0
                l(3) =   1
                l(4) =   1
                l(5) =   2
                l(6) =   2
     Q(r) pseudized with 0 coefficients 


     PseudoPot. # 2 for N  read from file:
     /home/nico-sachs/source/q-e/SSSP_1.3.0_PBE_efficiency/N.pbe-n-radius_5.UPF
     MD5 check sum: 16739722b17309cd8fe442a2ace49922
     Pseudo is Ultrasoft + core correction, Zval =  5.0
     Generated using "atomic" code by A. Dal Corso  v.5.1
     Using radial grid of 1085 points,  4 beta functions with: 
                l(1) =   0
                l(2) =   0
                l(3) =   1
                l(4) =   1
     Q(r) pseudized with 0 coefficients 


     atomic species   valence    mass     pseudopotential
     Ga               13.00    69.72300     Ga( 1.00)
     N                 5.00    14.00700     N ( 1.00)

     12 Sym. Ops. (no inversion) found ( 6 have fractional translation)



   Cartesian axes

     site n.     atom                  positions (alat units)
         1        Ga     tau(   1) = (  -0.0000000   0.5773503   0.0000000  )
         2        Ga     tau(   2) = (   0.5000000   0.2886751   0.8129508  )
         3        N      tau(   3) = (  -0.0000000   0.5773503   0.6097131  )
         4        N      tau(   4) = (   0.5000000   0.2886751   1.4226638  )

     number of k points=    21
                       cart. coord. in units 2pi/alat
        k(    1) = (   0.0000000   0.0000000   0.0000000), wk =   0.0138889
        k(    2) = (   0.0000000   0.0000000   0.1537608), wk =   0.0277778
        k(    3) = (   0.0000000   0.0000000  -0.3075217), wk =   0.0138889
        k(    4) = (   0.0000000   0.1924501   0.0000000), wk =   0.0833333
        k(    5) = (   0.0000000   0.1924501   0.1537608), wk =   0.1666667
        k(    6) = (   0.0000000   0.1924501  -0.3075217), wk =   0.0833333
        k(    7) = (   0.0000000   0.3849002   0.0000000), wk =   0.0833333
        k(    8) = (   0.0000000   0.3849002   0.1537608), wk =   0.1666667
        k(    9) = (   0.0000000   0.3849002  -0.3075217), wk =   0.0833333
        k(   10) = (   0.0000000  -0.5773503   0.0000000), wk =   0.0416667
        k(   11) = (   0.0000000  -0.5773503   0.1537608), wk =   0.0833333
        k(   12) = (   0.0000000  -0.5773503  -0.3075217), wk =   0.0416667
        k(   13) = (   0.1666667   0.2886751   0.0000000), wk =   0.0833333
        k(   14) = (   0.1666667   0.2886751   0.1537608), wk =   0.1666667
        k(   15) = (   0.1666667   0.2886751  -0.3075217), wk =   0.0833333
        k(   16) = (   0.1666667   0.4811252   0.0000000), wk =   0.1666667
        k(   17) = (   0.1666667   0.4811252   0.1537608), wk =   0.3333333
        k(   18) = (   0.1666667   0.4811252  -0.3075217), wk =   0.1666667
        k(   19) = (   0.3333333   0.5773503   0.0000000), wk =   0.0277778
        k(   20) = (   0.3333333   0.5773503   0.1537608), wk =   0.0555556
        k(   21) = (   0.3333333   0.5773503  -0.3075217), wk =   0.0277778

     Dense  grid:    38287 G-vectors     FFT dimensions: (  40,  40,  64)

     Smooth grid:    35591 G-vectors     FFT dimensions: (  40,  40,  60)

     Estimated max dynamical RAM per process >      46.10 MB

     Estimated total dynamical RAM >     184.40 MB

     Initial potential from superposition of free atoms

     starting charge      35.9941, renormalised to      36.0000
     Starting wfcs are   26 randomized atomic wfcs
     Checking if some PAW data can be deallocated... 

     total cpu time spent up to now is        1.8 secs

     Self-consistent Calculation

     iteration #  1     ecut=    90.00 Ry     beta= 0.70
     CG style diagonalization
     ethr =  1.00E-02,  avg # of iterations =  2.0

     total cpu time spent up to now is        3.7 secs

     total energy              =    -595.58042269 Ry
     estimated scf accuracy    <       1.11376101 Ry

     iteration #  2     ecut=    90.00 Ry     beta= 0.70
     CG style diagonalization
     ethr =  3.09E-03,  avg # of iterations =  4.8

     total cpu time spent up to now is        7.9 secs

     total energy              =    -596.02824954 Ry
     estimated scf accuracy    <       1.07650108 Ry

     iteration #  3     ecut=    90.00 Ry     beta= 0.70
     CG style diagonalization
     ethr =  2.99E-03,  avg # of iterations =  3.8

     total cpu time spent up to now is       11.4 secs

     total energy              =    -596.21461368 Ry
     estimated scf accuracy    <       0.00934596 Ry

     iteration #  4     ecut=    90.00 Ry     beta= 0.70
     CG style diagonalization
     c_bands:  1 eigenvalues not converged
     c_bands:  1 eigenvalues not converged
     c_bands:  1 eigenvalues not converged
     c_bands:  2 eigenvalues not converged
     c_bands:  1 eigenvalues not converged
     c_bands:  1 eigenvalues not converged
     c_bands:  1 eigenvalues not converged
     c_bands:  1 eigenvalues not converged
     c_bands:  1 eigenvalues not converged
     c_bands:  1 eigenvalues not converged
     c_bands:  1 eigenvalues not converged
     ethr =  2.60E-05,  avg # of iterations =  9.9

     total cpu time spent up to now is       20.7 secs

     total energy              =    -596.35951345 Ry
     estimated scf accuracy    <       0.03321718 Ry

     iteration #  5     ecut=    90.00 Ry     beta= 0.70
     CG style diagonalization
     ethr =  2.60E-05,  avg # of iterations =  4.0

     total cpu time spent up to now is       24.7 secs

     total energy              =    -596.36435434 Ry
     estimated scf accuracy    <       0.05009778 Ry

     iteration #  6     ecut=    90.00 Ry     beta= 0.70
     CG style diagonalization
     ethr =  2.60E-05,  avg # of iterations =  5.1

     total cpu time spent up to now is       29.7 secs

     total energy              =    -596.36706732 Ry
     estimated scf accuracy    <       0.13531577 Ry

     iteration #  7     ecut=    90.00 Ry     beta= 0.70
     CG style diagonalization
     ethr =  2.60E-05,  avg # of iterations =  3.9

     total cpu time spent up to now is       32.9 secs

     total energy              =    -596.36878083 Ry
     estimated scf accuracy    <       0.02527575 Ry

     iteration #  8     ecut=    90.00 Ry     beta= 0.70
     CG style diagonalization
     ethr =  2.60E-05,  avg # of iterations =  3.1

     total cpu time spent up to now is       35.5 secs

     total energy              =    -596.37100443 Ry
     estimated scf accuracy    <       0.02071893 Ry

     iteration #  9     ecut=    90.00 Ry     beta= 0.70
     CG style diagonalization
     ethr =  2.60E-05,  avg # of iterations =  3.0

     total cpu time spent up to now is       38.0 secs

     total energy              =    -596.36698494 Ry
     estimated scf accuracy    <       0.03719052 Ry

     iteration # 10     ecut=    90.00 Ry     beta= 0.70
     CG style diagonalization
     ethr =  2.60E-05,  avg # of iterations =  3.5

     total cpu time spent up to now is       40.4 secs

     total energy              =    -596.36841789 Ry
     estimated scf accuracy    <       0.00025428 Ry

     iteration # 11     ecut=    90.00 Ry     beta= 0.70
     CG style diagonalization
     c_bands:  1 eigenvalues not converged
     c_bands:  1 eigenvalues not converged
     c_bands:  1 eigenvalues not converged
     ethr =  7.06E-07,  avg # of iterations =  9.5

     total cpu time spent up to now is       46.5 secs

     total energy              =    -596.36879001 Ry
     estimated scf accuracy    <       0.01077107 Ry

     iteration # 12     ecut=    90.00 Ry     beta= 0.70
     CG style diagonalization
     ethr =  7.06E-07,  avg # of iterations =  5.6

     total cpu time spent up to now is       50.2 secs

     total energy              =    -596.36915679 Ry
     estimated scf accuracy    <       0.00041362 Ry

     iteration # 13     ecut=    90.00 Ry     beta= 0.70
     CG style diagonalization
     ethr =  7.06E-07,  avg # of iterations =  5.0

     total cpu time spent up to now is       53.6 secs

     total energy              =    -596.36929313 Ry
     estimated scf accuracy    <       0.00050369 Ry

     iteration # 14     ecut=    90.00 Ry     beta= 0.70
     CG style diagonalization
     ethr =  7.06E-07,  avg # of iterations =  4.4

     total cpu time spent up to now is       56.7 secs

     total energy              =    -596.36937329 Ry
     estimated scf accuracy    <       0.00038465 Ry

     iteration # 15     ecut=    90.00 Ry     beta= 0.70
     CG style diagonalization
     ethr =  7.06E-07,  avg # of iterations =  3.2

     total cpu time spent up to now is       59.0 secs

     total energy              =    -596.36930724 Ry
     estimated scf accuracy    <       0.00031789 Ry

     iteration # 16     ecut=    90.00 Ry     beta= 0.70
     CG style diagonalization
     ethr =  7.06E-07,  avg # of iterations =  4.0

     total cpu time spent up to now is       61.7 secs

     total energy              =    -596.36933580 Ry
     estimated scf accuracy    <       0.00004805 Ry

     iteration # 17     ecut=    90.00 Ry     beta= 0.70
     CG style diagonalization
     ethr =  1.33E-07,  avg # of iterations =  5.1

     total cpu time spent up to now is       65.2 secs

     total energy              =    -596.36936772 Ry
     estimated scf accuracy    <       0.00003329 Ry

     iteration # 18     ecut=    90.00 Ry     beta= 0.70
     CG style diagonalization
     ethr =  9.25E-08,  avg # of iterations =  3.6

     total cpu time spent up to now is       67.7 secs

     total energy              =    -596.36938277 Ry
     estimated scf accuracy    <       0.00003879 Ry

     iteration # 19     ecut=    90.00 Ry     beta= 0.70
     CG style diagonalization
     ethr =  9.25E-08,  avg # of iterations =  3.8

     total cpu time spent up to now is       70.5 secs

     total energy              =    -596.36943770 Ry
     estimated scf accuracy    <       0.00002637 Ry

     iteration # 20     ecut=    90.00 Ry     beta= 0.70
     CG style diagonalization
     ethr =  7.33E-08,  avg # of iterations =  5.3

     total cpu time spent up to now is       74.3 secs

     total energy              =    -596.36932961 Ry
     estimated scf accuracy    <       0.00031385 Ry

     iteration # 21     ecut=    90.00 Ry     beta= 0.70
     CG style diagonalization
     ethr =  7.33E-08,  avg # of iterations =  5.1

     total cpu time spent up to now is       78.0 secs

     total energy              =    -596.36937024 Ry
     estimated scf accuracy    <       0.00000341 Ry

     iteration # 22     ecut=    90.00 Ry     beta= 0.70
     CG style diagonalization
     c_bands:  1 eigenvalues not converged
     ethr =  9.47E-09,  avg # of iterations =  8.2

     total cpu time spent up to now is       83.8 secs

     total energy              =    -596.36937916 Ry
     estimated scf accuracy    <       0.00000783 Ry

     iteration # 23     ecut=    90.00 Ry     beta= 0.70
     CG style diagonalization
     ethr =  9.47E-09,  avg # of iterations =  4.7

     total cpu time spent up to now is       87.1 secs

     total energy              =    -596.36938080 Ry
     estimated scf accuracy    <       0.00000342 Ry

     iteration # 24     ecut=    90.00 Ry     beta= 0.70
     CG style diagonalization
     ethr =  9.47E-09,  avg # of iterations =  4.0

     total cpu time spent up to now is       89.9 secs

     total energy              =    -596.36938200 Ry
     estimated scf accuracy    <       0.00000988 Ry

     iteration # 25     ecut=    90.00 Ry     beta= 0.70
     CG style diagonalization
     ethr =  9.47E-09,  avg # of iterations =  3.3

     total cpu time spent up to now is       92.4 secs

     total energy              =    -596.36938186 Ry
     estimated scf accuracy    <       0.00002181 Ry

     iteration # 26     ecut=    90.00 Ry     beta= 0.70
     CG style diagonalization
     ethr =  9.47E-09,  avg # of iterations =  3.1

     total cpu time spent up to now is       94.6 secs

     total energy              =    -596.36938329 Ry
     estimated scf accuracy    <       0.00001549 Ry

     iteration # 27     ecut=    90.00 Ry     beta= 0.70
     CG style diagonalization
     ethr =  9.47E-09,  avg # of iterations =  3.8

     total cpu time spent up to now is       97.2 secs

     total energy              =    -596.36938143 Ry
     estimated scf accuracy    <       0.00001292 Ry

     iteration # 28     ecut=    90.00 Ry     beta= 0.70
     CG style diagonalization
     ethr =  9.47E-09,  avg # of iterations =  4.2

     total cpu time spent up to now is      100.1 secs

     total energy              =    -596.36938031 Ry
     estimated scf accuracy    <       0.00000535 Ry

     iteration # 29     ecut=    90.00 Ry     beta= 0.70
     CG style diagonalization
     ethr =  9.47E-09,  avg # of iterations =  4.0

     total cpu time spent up to now is      102.4 secs

     End of self-consistent calculation

          k = 0.0000 0.0000 0.0000 (  4427 PWs)   bands (ev):

    -6.2579  -5.3513  -3.7630  -3.7421  -3.7421  -3.6802  -3.6802  -3.4943
    -3.4943  -3.3950  -3.3950  -2.1373   2.6389   8.6798   8.6798   9.6650
     9.7273   9.7273

          k = 0.0000 0.0000 0.1538 (  4422 PWs)   bands (ev):

    -6.0824  -5.4235  -3.7384  -3.7384  -3.7058  -3.6942  -3.6942  -3.4749
    -3.4749  -3.4050  -3.4050  -2.6894   3.6934   8.1717   8.8264   8.8264
     9.5672   9.5672

          k = 0.0000 0.0000-0.3075 (  4386 PWs)   bands (ev):

    -5.6972  -5.6972  -3.7213  -3.7213  -3.7213  -3.7213  -3.4354  -3.4354
    -3.4354  -3.4354  -3.4087  -3.4087   5.8637   5.8637   9.1900   9.1900
     9.1900   9.1900

          k = 0.0000 0.1925 0.0000 (  4448 PWs)   bands (ev):

    -6.0066  -5.2933  -3.7301  -3.7084  -3.6655  -3.6305  -3.6297  -3.5154
    -3.4930  -3.4313  -3.3895  -1.9525   3.0232   7.0033   8.0061   8.1728
     9.3778   9.4906

          k = 0.0000 0.1925 0.1538 (  4432 PWs)   bands (ev):

    -5.8560  -5.3424  -3.7207  -3.7006  -3.6719  -3.6447  -3.6060  -3.4779
    -3.4749  -3.4317  -3.4020  -2.4660   3.9352   7.1193   7.4497   8.3496
     9.0123   9.2789

          k = 0.0000 0.1925-0.3075 (  4420 PWs)   bands (ev):

    -5.5439  -5.5439  -3.6960  -3.6960  -3.6762  -3.6762  -3.5190  -3.5190
    -3.4357  -3.4357  -3.1691  -3.1691   5.6996   5.6996   8.0838   8.0838
     8.7970   8.7970

          k = 0.0000 0.3849 0.0000 (  4436 PWs)   bands (ev):

    -5.5472  -5.2154  -3.6927  -3.6736  -3.5957  -3.5327  -3.5308  -3.4970
    -3.4484  -3.3786  -3.0758  -1.5900   3.7566   4.8355   5.8335   7.3423
     8.4345   8.9922

          k = 0.0000 0.3849 0.1538 (  4440 PWs)   bands (ev):

    -5.4626  -5.2286  -3.7003  -3.6516  -3.6277  -3.5492  -3.5321  -3.4803
    -3.4412  -3.3925  -2.9591  -1.9458   3.7683   5.0298   6.0371   7.5553
     8.5366   8.7144

          k = 0.0000 0.3849-0.3075 (  4454 PWs)   bands (ev):

    -5.3082  -5.3082  -3.6841  -3.6841  -3.5988  -3.5988  -3.4983  -3.4983
    -3.4199  -3.4199  -2.5645  -2.5645   4.2525   4.2525   7.6327   7.6327
     8.1035   8.1035

          k = 0.0000-0.5774 0.0000 (  4474 PWs)   bands (ev):

    -5.3689  -5.1945  -3.6959  -3.6719  -3.5778  -3.5342  -3.4865  -3.4802
    -3.4047  -3.3697  -2.2534  -1.7131   3.2798   4.4592   5.4926   6.9807
     7.4903   8.7485

          k = 0.0000-0.5774 0.1538 (  4456 PWs)   bands (ev):

    -5.3179  -5.1946  -3.7084  -3.6429  -3.6202  -3.5373  -3.5084  -3.4400
    -3.4033  -3.3821  -2.1978  -1.8085   3.0122   3.8644   6.4156   7.2067
     8.0191   8.4470

          k = 0.0000-0.5774-0.3075 (  4452 PWs)   bands (ev):

    -5.2300  -5.2300  -3.6980  -3.6980  -3.5730  -3.5730  -3.4639  -3.4639
    -3.3973  -3.3973  -2.0261  -2.0261   3.1291   3.1291   7.7905   7.7905
     7.8165   7.8165

          k = 0.1667 0.2887 0.0000 (  4443 PWs)   bands (ev):

    -5.6508  -5.2305  -3.6974  -3.6748  -3.6064  -3.5823  -3.5343  -3.4735
    -3.4627  -3.4166  -3.2561  -1.6577   3.6604   5.6790   6.0563   7.3256
     8.7174   8.8024

          k = 0.1667 0.2887 0.1538 (  4445 PWs)   bands (ev):

    -5.5484  -5.2509  -3.6801  -3.6770  -3.6206  -3.6071  -3.5132  -3.5073
    -3.4399  -3.4238  -3.1484  -2.0772   4.0811   5.7194   6.2998   7.2876
     8.4087   8.7922

          k = 0.1667 0.2887-0.3075 (  4448 PWs)   bands (ev):

    -5.3561  -5.3561  -3.6600  -3.6600  -3.6327  -3.6327  -3.5290  -3.5290
    -3.4251  -3.4251  -2.7536  -2.7536   4.8881   4.8881   7.6071   7.6071
     7.9174   7.9174

          k = 0.1667 0.4811 0.0000 (  4446 PWs)   bands (ev):

    -5.3580  -5.1996  -3.7186  -3.6363  -3.5484  -3.5334  -3.5122  -3.4919
    -3.4303  -3.3962  -2.4168  -1.5048   3.7175   4.6724   5.5246   6.0990
     7.6992   7.9667

          k = 0.1667 0.4811 0.1538 (  4450 PWs)   bands (ev):

    -5.3081  -5.1968  -3.6883  -3.6533  -3.5992  -3.5351  -3.5132  -3.4710
    -3.4227  -3.4128  -2.3226  -1.6766   3.4528   4.2400   5.9666   6.7339
     7.5284   8.2200

          k = 0.1667 0.4811-0.3075 (  4450 PWs)   bands (ev):

    -5.2253  -5.2253  -3.6629  -3.6629  -3.5929  -3.5929  -3.4913  -3.4913
    -3.4153  -3.4153  -2.0405  -2.0405   3.5822   3.5822   6.6768   6.6768
     8.0618   8.0618

          k = 0.3333 0.5774 0.0000 (  4449 PWs)   bands (ev):

    -5.2352  -5.2352  -3.7476  -3.5407  -3.5407  -3.5224  -3.5086  -3.5086
    -3.4617  -3.4144  -1.7186  -1.7186   4.3961   4.3961   4.4468   6.7177
     6.7177   7.0352

          k = 0.3333 0.5774 0.1538 (  4449 PWs)   bands (ev):

    -5.2126  -5.2126  -3.7075  -3.5941  -3.5941  -3.5313  -3.4680  -3.4680
    -3.4662  -3.4503  -1.7129  -1.7129   3.9084   3.9084   4.7451   6.5296
     7.5205   7.5205

          k = 0.3333 0.5774-0.3075 (  4494 PWs)   bands (ev):

    -5.1894  -5.1894  -3.6265  -3.6265  -3.6086  -3.6086  -3.4735  -3.4735
    -3.4490  -3.4490  -1.7071  -1.7071   3.5648   3.5648   5.5450   5.5450
     8.2350   8.2350

     highest occupied level (ev):     9.7273

!    total energy              =    -596.36938088 Ry
     estimated scf accuracy    <       0.00000024 Ry

     The total energy is the sum of the following terms:
     one-electron contribution =    -181.37823581 Ry
     hartree contribution      =     130.14459080 Ry
     xc contribution           =     -87.87839998 Ry
     ewald contribution        =    -233.28276133 Ry
     one-center paw contrib.   =    -223.97457457 Ry

     convergence has been achieved in  29 iterations

     Forces acting on atoms (cartesian axes, Ry/au):

     atom    1 type  1   force =     0.00000000    0.00000000   -0.00482546
     atom    2 type  1   force =     0.00000000    0.00000000   -0.00482546
     atom    3 type  2   force =     0.00000000    0.00000000    0.00482546
     atom    4 type  2   force =    -0.00000000   -0.00000000    0.00482546

     Total force =     0.009651     Total SCF correction =     0.000061


     Computing stress (Cartesian axis) and pressure

          total   stress  (Ry/bohr**3)                   (kbar)     P=       52.42
   0.00031768  -0.00000000   0.00000000           46.73       -0.00        0.00
  -0.00000000   0.00031768   0.00000000           -0.00       46.73        0.00
   0.00000000   0.00000000   0.00043373            0.00        0.00       63.80


     Writing all to output data dir /home/nico-sachs/source/q-e/tempdir/gan.save/ :
     XML data file, charge density, pseudopotentials, collected wavefunctions

     init_run     :      1.52s CPU      1.58s WALL (       1 calls)
     electrons    :     97.61s CPU    100.68s WALL (       1 calls)
     forces       :      0.30s CPU      0.30s WALL (       1 calls)
     stress       :      1.07s CPU      1.07s WALL (       1 calls)

     Called by init_run:
     wfcinit      :      0.76s CPU      0.77s WALL (       1 calls)
     potinit      :      0.33s CPU      0.36s WALL (       1 calls)
     hinit0       :      0.33s CPU      0.34s WALL (       1 calls)

     Called by electrons:
     c_bands      :     81.55s CPU     84.37s WALL (      29 calls)
     sum_band     :      6.53s CPU      6.75s WALL (      29 calls)
     v_of_rho     :      0.39s CPU      0.40s WALL (      30 calls)
     newd         :      1.25s CPU      1.27s WALL (      30 calls)
     PAW_pot      :      8.00s CPU      8.04s WALL (      30 calls)
     mix_rho      :      0.10s CPU      0.10s WALL (      29 calls)

     Called by c_bands:
     init_us_2    :      0.68s CPU      0.69s WALL (    1281 calls)
     ccgdiagg     :     68.45s CPU     70.87s WALL (     609 calls)
     wfcrot       :     13.31s CPU     13.70s WALL (     609 calls)

     Called by *cgdiagg:
     h_psi        :     49.00s CPU     50.97s WALL (   40227 calls)
     s_psi        :     13.19s CPU     13.61s WALL (   79845 calls)

     Called by h_psi:
     h_psi:calbec :     11.02s CPU     11.47s WALL (   40227 calls)
     vloc_psi     :     29.85s CPU     31.09s WALL (   40227 calls)
                                        0.00s GPU  (   40227 calls)
     add_vuspsi   :      7.66s CPU      7.93s WALL (   40227 calls)
     hs_1psi      :     45.73s CPU     47.56s WALL (   39618 calls)
     s_1psi       :     14.88s CPU     15.28s WALL (   39618 calls)

     General routines
     calbec       :     22.10s CPU     22.83s WALL (   80811 calls)
     fft          :      0.35s CPU      0.35s WALL (     413 calls)
     ffts         :      0.09s CPU      0.10s WALL (      59 calls)
     fftw         :     28.61s CPU     29.85s WALL (  112458 calls)
     interpolate  :      0.10s CPU      0.11s WALL (      30 calls)

     Parallel routines

     PWSCF        :   1m40.69s CPU   1m43.85s WALL


   This run was terminated on:  14:16:56  27Jan2026            

=------------------------------------------------------------------------------=
   JOB DONE.
=------------------------------------------------------------------------------=
