
     Program PWSCF v.7.5 starts on 26Jan2026 at 16:19:17 

     This program is part of the open-source Quantum ESPRESSO suite
     for quantum simulation of materials; please cite
         "P. Giannozzi et al., J. Phys.:Condens. Matter 21 395502 (2009);
         "P. Giannozzi et al., J. Phys.:Condens. Matter 29 465901 (2017);
         "P. Giannozzi et al., J. Chem. Phys. 152 154105 (2020);
          URL http://www.quantum-espresso.org", 
     in publications or presentations arising from this work. More details at
     http://www.quantum-espresso.org/quote

     Parallel version (MPI), running on     1 processors

     MPI processes distributed on     1 nodes
     25140 MiB available memory on the printing compute node when the environment starts

     Waiting for input...
     Reading input from standard input

     Current dimensions of program PWSCF are:
     Max number of different atomic species (ntypx) = 10
     Max number of k-points (npk) =  40000
     Max angular momentum in pseudopotentials (lmaxx) =  4
     file Ga.pbe-dn-kjpaw_psl.1.0.0.UPF: wavefunction(s)  4S renormalized
     file Al.pbe-n-kjpaw_psl.1.0.0.UPF: wavefunction(s)  3S 3P renormalized
     Message from routine volume:
     axis vectors are left-handed
     Message from routine setup:
     using ibrav=0 with symmetry is DISCOURAGED, use correct ibrav instead

     Subspace diagonalization in iterative solution of the eigenvalue problem:
     a serial algorithm will be used


     G-vector sticks info
     --------------------
     sticks:   dense  smooth     PW     G-vecs:    dense   smooth      PW
     Sum         967     769    241                20179    14361    2421

     Using Slab Decomposition



     bravais-lattice index     =            0
     lattice parameter (alat)  =      10.6829  a.u.
     unit-cell volume          =     304.7984 (a.u.)^3
     number of atoms/cell      =            2
     number of atomic types    =            2
     number of electrons       =        16.00
     number of Kohn-Sham states=           12
     kinetic-energy cutoff     =      50.0000  Ry
     charge density cutoff     =     250.0000  Ry
     scf convergence threshold =      1.0E-06
     mixing beta               =       0.7000
     number of iterations used =            8  plain     mixing
     Exchange-correlation= SLA  PW   PBX  PBC
                           (   1   4   3   4   0   0   0)

     celldm(1)=  10.682943  celldm(2)=   0.000000  celldm(3)=   0.000000
     celldm(4)=   0.000000  celldm(5)=   0.000000  celldm(6)=   0.000000

     crystal axes: (cart. coord. in units of alat)
               a(1) = (   0.500000   0.500000   0.000000 )  
               a(2) = (   0.500000   0.000000   0.500000 )  
               a(3) = (   0.000000   0.500000   0.500000 )  

     reciprocal axes: (cart. coord. in units 2 pi/alat)
               b(1) = (  1.000000  1.000000 -1.000000 )  
               b(2) = (  1.000000 -1.000000  1.000000 )  
               b(3) = ( -1.000000  1.000000  1.000000 )  


     PseudoPot. # 1 for Ga read from file:
     /home/nico-sachs/source/q-e/SSSP_1.3.0_PBE_efficiency/Ga.pbe-dn-kjpaw_psl.1.0.0.UPF
     MD5 check sum: a27b4342b1af7e5f338de752e9ed7044
     Pseudo is Projector augmented-wave + core cor, Zval = 13.0
     Generated using "atomic" code by A. Dal Corso  v.5.1
     Shape of augmentation charge: PSQ
     Using radial grid of 1205 points,  6 beta functions with: 
                l(1) =   0
                l(2) =   0
                l(3) =   1
                l(4) =   1
                l(5) =   2
                l(6) =   2
     Q(r) pseudized with 0 coefficients 


     PseudoPot. # 2 for Al read from file:
     /home/nico-sachs/source/q-e/SSSP_1.3.0_PBE_efficiency/Al.pbe-n-kjpaw_psl.1.0.0.UPF
     MD5 check sum: cfc449ca30b5f3223ec38ddd88ac046d
     Pseudo is Projector augmented-wave + core cor, Zval =  3.0
     Generated using "atomic" code by A. Dal Corso  v.5.1
     Shape of augmentation charge: PSQ
     Using radial grid of 1135 points,  6 beta functions with: 
                l(1) =   0
                l(2) =   0
                l(3) =   1
                l(4) =   1
                l(5) =   2
                l(6) =   2
     Q(r) pseudized with 0 coefficients 


     atomic species   valence    mass     pseudopotential
     Ga               13.00    69.72300     Ga( 1.00)
     As                3.00    74.92100     Al( 1.00)

     24 Sym. Ops. (no inversion) found



   Cartesian axes

     site n.     atom                  positions (alat units)
         1        As     tau(   1) = (   0.2500000   0.2500000   0.2500000  )
         2        Ga     tau(   2) = (   0.0000000   0.0000000   0.0000000  )

     number of k points=    60  Marzari-Vanderbilt smearing, width (Ry)=  0.0500
                       cart. coord. in units 2pi/alat
        k(    1) = (   0.0625000   0.0625000   0.0625000), wk =   0.0078125
        k(    2) = (   0.0625000   0.0625000   0.1875000), wk =   0.0234375
        k(    3) = (   0.0625000   0.0625000   0.3125000), wk =   0.0234375
        k(    4) = (   0.0625000   0.0625000   0.4375000), wk =   0.0234375
        k(    5) = (   0.0625000   0.0625000   0.5625000), wk =   0.0234375
        k(    6) = (   0.0625000   0.0625000   0.6875000), wk =   0.0234375
        k(    7) = (   0.0625000   0.0625000   0.8125000), wk =   0.0234375
        k(    8) = (   0.0625000   0.0625000   0.9375000), wk =   0.0234375
        k(    9) = (   0.0625000   0.1875000   0.1875000), wk =   0.0234375
        k(   10) = (   0.0625000   0.1875000   0.3125000), wk =   0.0468750
        k(   11) = (   0.0625000   0.1875000   0.4375000), wk =   0.0468750
        k(   12) = (   0.0625000   0.1875000   0.5625000), wk =   0.0468750
        k(   13) = (   0.0625000   0.1875000   0.6875000), wk =   0.0468750
        k(   14) = (   0.0625000   0.1875000   0.8125000), wk =   0.0468750
        k(   15) = (   0.0625000   0.1875000   0.9375000), wk =   0.0468750
        k(   16) = (   0.0625000   0.3125000   0.3125000), wk =   0.0234375
        k(   17) = (   0.0625000   0.3125000   0.4375000), wk =   0.0468750
        k(   18) = (   0.0625000   0.3125000   0.5625000), wk =   0.0468750
        k(   19) = (   0.0625000   0.3125000   0.6875000), wk =   0.0468750
        k(   20) = (   0.0625000   0.3125000   0.8125000), wk =   0.0468750
        k(   21) = (   0.0625000   0.3125000   0.9375000), wk =   0.0468750
        k(   22) = (   0.0625000   0.4375000   0.4375000), wk =   0.0234375
        k(   23) = (   0.0625000   0.4375000   0.5625000), wk =   0.0468750
        k(   24) = (   0.0625000   0.4375000   0.6875000), wk =   0.0468750
        k(   25) = (   0.0625000   0.4375000   0.8125000), wk =   0.0468750
        k(   26) = (   0.0625000   0.4375000   0.9375000), wk =   0.0468750
        k(   27) = (   0.0625000   0.5625000   0.5625000), wk =   0.0234375
        k(   28) = (   0.0625000   0.5625000   0.6875000), wk =   0.0468750
        k(   29) = (   0.0625000   0.5625000   0.8125000), wk =   0.0468750
        k(   30) = (   0.0625000   0.6875000   0.6875000), wk =   0.0234375
        k(   31) = (   0.0625000   0.6875000   0.8125000), wk =   0.0468750
        k(   32) = (   0.0625000   0.8125000   0.8125000), wk =   0.0234375
        k(   33) = (   0.1875000   0.1875000   0.1875000), wk =   0.0078125
        k(   34) = (   0.1875000   0.1875000   0.3125000), wk =   0.0234375
        k(   35) = (   0.1875000   0.1875000   0.4375000), wk =   0.0234375
        k(   36) = (   0.1875000   0.1875000   0.5625000), wk =   0.0234375
        k(   37) = (   0.1875000   0.1875000   0.6875000), wk =   0.0234375
        k(   38) = (   0.1875000   0.1875000   0.8125000), wk =   0.0234375
        k(   39) = (   0.1875000   0.3125000   0.3125000), wk =   0.0234375
        k(   40) = (   0.1875000   0.3125000   0.4375000), wk =   0.0468750
        k(   41) = (   0.1875000   0.3125000   0.5625000), wk =   0.0468750
        k(   42) = (   0.1875000   0.3125000   0.6875000), wk =   0.0468750
        k(   43) = (   0.1875000   0.3125000   0.8125000), wk =   0.0468750
        k(   44) = (   0.1875000   0.4375000   0.4375000), wk =   0.0234375
        k(   45) = (   0.1875000   0.4375000   0.5625000), wk =   0.0468750
        k(   46) = (   0.1875000   0.4375000   0.6875000), wk =   0.0468750
        k(   47) = (   0.1875000   0.4375000   0.8125000), wk =   0.0468750
        k(   48) = (   0.1875000   0.5625000   0.5625000), wk =   0.0234375
        k(   49) = (   0.1875000   0.5625000   0.6875000), wk =   0.0468750
        k(   50) = (   0.1875000   0.6875000   0.6875000), wk =   0.0234375
        k(   51) = (   0.3125000   0.3125000   0.3125000), wk =   0.0078125
        k(   52) = (   0.3125000   0.3125000   0.4375000), wk =   0.0234375
        k(   53) = (   0.3125000   0.3125000   0.5625000), wk =   0.0234375
        k(   54) = (   0.3125000   0.3125000   0.6875000), wk =   0.0234375
        k(   55) = (   0.3125000   0.4375000   0.4375000), wk =   0.0234375
        k(   56) = (   0.3125000   0.4375000   0.5625000), wk =   0.0468750
        k(   57) = (   0.3125000   0.4375000   0.6875000), wk =   0.0468750
        k(   58) = (   0.3125000   0.5625000   0.5625000), wk =   0.0234375
        k(   59) = (   0.4375000   0.4375000   0.4375000), wk =   0.0078125
        k(   60) = (   0.4375000   0.4375000   0.5625000), wk =   0.0234375

     Dense  grid:    20179 G-vectors     FFT dimensions: (  40,  40,  40)

     Smooth grid:    14361 G-vectors     FFT dimensions: (  36,  36,  36)

     Estimated max dynamical RAM per process >      99.11 MB

     Check: negative core charge=   -0.000001

     Initial potential from superposition of free atoms

     starting charge      15.9948, renormalised to      16.0000
     Starting wfcs are   13 randomized atomic wfcs
     Checking if some PAW data can be deallocated... 

     total cpu time spent up to now is        2.4 secs

     Self-consistent Calculation

     iteration #  1     ecut=    50.00 Ry     beta= 0.70
     CG style diagonalization
     ethr =  1.00E-02,  avg # of iterations =  3.0

     Threshold (ethr) on eigenvalues was too large:
     Diagonalizing with lowered threshold

     CG style diagonalization
     c_bands:  2 eigenvalues not converged
     c_bands:  1 eigenvalues not converged
     c_bands:  1 eigenvalues not converged
     c_bands:  1 eigenvalues not converged
     ethr =  4.69E-05,  avg # of iterations =  7.9

     total cpu time spent up to now is       13.5 secs

     total energy              =    -317.34842310 Ry
     estimated scf accuracy    <       0.00997026 Ry

     iteration #  2     ecut=    50.00 Ry     beta= 0.70
     CG style diagonalization
     ethr =  6.23E-05,  avg # of iterations =  3.0

     total cpu time spent up to now is       16.9 secs

     total energy              =    -317.34880875 Ry
     estimated scf accuracy    <       0.00083816 Ry

     iteration #  3     ecut=    50.00 Ry     beta= 0.70
     CG style diagonalization
     c_bands:  1 eigenvalues not converged
     c_bands:  1 eigenvalues not converged
     c_bands:  1 eigenvalues not converged
     c_bands:  1 eigenvalues not converged
     c_bands:  1 eigenvalues not converged
     ethr =  5.24E-06,  avg # of iterations =  4.9

     total cpu time spent up to now is       22.1 secs

     total energy              =    -317.34907567 Ry
     estimated scf accuracy    <       0.00000815 Ry

     iteration #  4     ecut=    50.00 Ry     beta= 0.70
     CG style diagonalization
     c_bands:  1 eigenvalues not converged
     c_bands:  1 eigenvalues not converged
     c_bands:  1 eigenvalues not converged
     c_bands:  1 eigenvalues not converged
     c_bands:  1 eigenvalues not converged
     c_bands:  1 eigenvalues not converged
     c_bands:  1 eigenvalues not converged
     c_bands:  1 eigenvalues not converged
     c_bands:  1 eigenvalues not converged
     c_bands:  2 eigenvalues not converged
     c_bands:  2 eigenvalues not converged
     c_bands:  1 eigenvalues not converged
     ethr =  5.10E-08,  avg # of iterations = 10.4

     total cpu time spent up to now is       31.9 secs

     total energy              =    -317.34928905 Ry
     estimated scf accuracy    <       0.00017429 Ry

     iteration #  5     ecut=    50.00 Ry     beta= 0.70
     CG style diagonalization
     ethr =  5.10E-08,  avg # of iterations =  3.2

     total cpu time spent up to now is       35.5 secs

     total energy              =    -317.34927899 Ry
     estimated scf accuracy    <       0.00018227 Ry

     iteration #  6     ecut=    50.00 Ry     beta= 0.70
     CG style diagonalization
     ethr =  5.10E-08,  avg # of iterations =  3.0

     total cpu time spent up to now is       38.8 secs

     total energy              =    -317.34924830 Ry
     estimated scf accuracy    <       0.00014530 Ry

     iteration #  7     ecut=    50.00 Ry     beta= 0.70
     CG style diagonalization
     ethr =  5.10E-08,  avg # of iterations =  3.6

     total cpu time spent up to now is       42.7 secs

     total energy              =    -317.34925126 Ry
     estimated scf accuracy    <       0.00005408 Ry

     iteration #  8     ecut=    50.00 Ry     beta= 0.70
     CG style diagonalization
     ethr =  5.10E-08,  avg # of iterations =  3.0

     total cpu time spent up to now is       46.2 secs

     total energy              =    -317.34925183 Ry
     estimated scf accuracy    <       0.00005245 Ry

     iteration #  9     ecut=    50.00 Ry     beta= 0.70
     CG style diagonalization
     ethr =  5.10E-08,  avg # of iterations =  3.0

     total cpu time spent up to now is       49.9 secs

     total energy              =    -317.34925055 Ry
     estimated scf accuracy    <       0.00005144 Ry

     iteration # 10     ecut=    50.00 Ry     beta= 0.70
     CG style diagonalization
     ethr =  5.10E-08,  avg # of iterations =  3.0

     total cpu time spent up to now is       53.3 secs

     total energy              =    -317.34924534 Ry
     estimated scf accuracy    <       0.00004588 Ry

     iteration # 11     ecut=    50.00 Ry     beta= 0.70
     CG style diagonalization
     ethr =  5.10E-08,  avg # of iterations =  3.0

     total cpu time spent up to now is       56.8 secs

     total energy              =    -317.34923717 Ry
     estimated scf accuracy    <       0.00002726 Ry

     iteration # 12     ecut=    50.00 Ry     beta= 0.70
     CG style diagonalization
     ethr =  5.10E-08,  avg # of iterations =  5.5

     total cpu time spent up to now is       62.4 secs

     total energy              =    -317.34924939 Ry
     estimated scf accuracy    <       0.00000330 Ry

     iteration # 13     ecut=    50.00 Ry     beta= 0.70
     CG style diagonalization
     ethr =  2.07E-08,  avg # of iterations =  4.1

     total cpu time spent up to now is       66.8 secs

     total energy              =    -317.34925306 Ry
     estimated scf accuracy    <       0.00000954 Ry

     iteration # 14     ecut=    50.00 Ry     beta= 0.70
     CG style diagonalization
     ethr =  2.07E-08,  avg # of iterations =  3.1

     total cpu time spent up to now is       70.4 secs

     total energy              =    -317.34925923 Ry
     estimated scf accuracy    <       0.00001487 Ry

     iteration # 15     ecut=    50.00 Ry     beta= 0.70
     CG style diagonalization
     ethr =  2.07E-08,  avg # of iterations =  4.6

     total cpu time spent up to now is       75.2 secs

     total energy              =    -317.34924765 Ry
     estimated scf accuracy    <       0.00005006 Ry

     iteration # 16     ecut=    50.00 Ry     beta= 0.70
     CG style diagonalization
     ethr =  2.07E-08,  avg # of iterations =  3.7

     total cpu time spent up to now is       79.1 secs

     total energy              =    -317.34926053 Ry
     estimated scf accuracy    <       0.00001129 Ry

     iteration # 17     ecut=    50.00 Ry     beta= 0.70
     CG style diagonalization
     ethr =  2.07E-08,  avg # of iterations =  3.7

     total cpu time spent up to now is       83.2 secs

     total energy              =    -317.34927458 Ry
     estimated scf accuracy    <       0.00004989 Ry

     iteration # 18     ecut=    50.00 Ry     beta= 0.70
     CG style diagonalization
     c_bands:  1 eigenvalues not converged
     ethr =  2.07E-08,  avg # of iterations =  8.5

     total cpu time spent up to now is       91.3 secs

     total energy              =    -317.34914163 Ry
     estimated scf accuracy    <       0.00077072 Ry

     iteration # 19     ecut=    50.00 Ry     beta= 0.70
     CG style diagonalization
     ethr =  2.07E-08,  avg # of iterations =  7.5

     total cpu time spent up to now is       98.6 secs

     total energy              =    -317.34924932 Ry
     estimated scf accuracy    <       0.00000413 Ry

     iteration # 20     ecut=    50.00 Ry     beta= 0.70
     CG style diagonalization
     ethr =  2.07E-08,  avg # of iterations =  3.0

     total cpu time spent up to now is      101.9 secs

     total energy              =    -317.34925107 Ry
     estimated scf accuracy    <       0.00000151 Ry

     iteration # 21     ecut=    50.00 Ry     beta= 0.70
     CG style diagonalization
     ethr =  9.45E-09,  avg # of iterations =  3.5

     total cpu time spent up to now is      105.7 secs

     total energy              =    -317.34924945 Ry
     estimated scf accuracy    <       0.00000768 Ry

     iteration # 22     ecut=    50.00 Ry     beta= 0.70
     CG style diagonalization
     ethr =  9.45E-09,  avg # of iterations =  3.3

     total cpu time spent up to now is      109.3 secs

     total energy              =    -317.34925023 Ry
     estimated scf accuracy    <       0.00000237 Ry

     iteration # 23     ecut=    50.00 Ry     beta= 0.70
     CG style diagonalization
     ethr =  9.45E-09,  avg # of iterations =  3.0

     total cpu time spent up to now is      112.6 secs

     total energy              =    -317.34925019 Ry
     estimated scf accuracy    <       0.00000410 Ry

     iteration # 24     ecut=    50.00 Ry     beta= 0.70
     CG style diagonalization
     ethr =  9.45E-09,  avg # of iterations =  3.0

     total cpu time spent up to now is      115.9 secs

     total energy              =    -317.34924896 Ry
     estimated scf accuracy    <       0.00000388 Ry

     iteration # 25     ecut=    50.00 Ry     beta= 0.70
     CG style diagonalization
     ethr =  9.45E-09,  avg # of iterations =  3.0

     total cpu time spent up to now is      119.3 secs

     End of self-consistent calculation

          k = 0.0625 0.0625 0.0625 (  1829 PWs)   bands (ev):

    -9.0387  -9.0379  -9.0379  -8.9762  -8.9762  -3.8337   7.5876   8.0796
     8.0797  10.4707  10.5224  10.5225

          k = 0.0625 0.0625 0.1875 (  1839 PWs)   bands (ev):

    -9.0403  -9.0356  -9.0353  -8.9774  -8.9751  -3.6995   6.8121   7.5554
     7.7903  10.1515  10.9138  11.1938

          k = 0.0625 0.0625 0.3125 (  1823 PWs)   bands (ev):

    -9.0436  -9.0308  -9.0306  -8.9797  -8.9730  -3.4324   5.9500   6.9132
     7.0687   9.6255  11.7044  12.1186

          k = 0.0625 0.0625 0.4375 (  1825 PWs)   bands (ev):

    -9.0480  -9.0246  -9.0243  -8.9831  -8.9703  -3.0348   5.0357   6.3112
     6.3150   9.0973  10.9893  13.1153

          k = 0.0625 0.0625 0.5625 (  1822 PWs)   bands (ev):

    -9.0526  -9.0178  -9.0174  -8.9870  -8.9674  -2.5121   4.0521   5.6729
     5.8109   8.6398  10.0699  14.1100

          k = 0.0625 0.0625 0.6875 (  1809 PWs)   bands (ev):

    -9.0568  -9.0113  -9.0109  -8.9908  -8.9648  -1.8740   3.0192   5.1979
     5.4215   8.2841   9.3712  15.1238

          k = 0.0625 0.0625 0.8125 (  1800 PWs)   bands (ev):

    -9.0600  -9.0063  -9.0059  -8.9939  -8.9628  -1.1454   1.9990   4.8863
     5.1573   8.0434   8.9102  16.1778

          k = 0.0625 0.0625 0.9375 (  1801 PWs)   bands (ev):

    -9.0618  -9.0036  -9.0031  -8.9957  -8.9618  -0.4375   1.1363   4.7321
     5.0239   7.9228   8.6820  17.0486

          k = 0.0625 0.1875 0.1875 (  1836 PWs)   bands (ev):

    -9.0399  -9.0350  -9.0335  -8.9772  -8.9751  -3.5663   6.0150   7.1128
     7.9798  10.5793  10.7226  11.1226

          k = 0.0625 0.1875 0.3125 (  1830 PWs)   bands (ev):

    -9.0421  -9.0312  -9.0299  -8.9788  -8.9734  -3.3013   5.2030   6.4620
     7.5508  10.2688  11.1792  11.8427

          k = 0.0625 0.1875 0.4375 (  1823 PWs)   bands (ev):

    -9.0458  -9.0256  -9.0245  -8.9817  -8.9708  -2.9078   4.4198   5.8321
     6.7790   9.7518  11.4735  12.0565

          k = 0.0625 0.1875 0.5625 (  1824 PWs)   bands (ev):

    -9.0500  -9.0199  -9.0178  -8.9852  -8.9681  -2.3919   3.6402   5.2651
     6.0019   9.2731  10.6646  12.8977

          k = 0.0625 0.1875 0.6875 (  1814 PWs)   bands (ev):

    -9.0538  -9.0144  -9.0113  -8.9888  -8.9659  -1.7657   2.8183   4.7761
     5.4007   8.8843  10.0586  13.7876

          k = 0.0625 0.1875 0.8125 (  1810 PWs)   bands (ev):

    -9.0567  -9.0100  -9.0062  -8.9918  -8.9643  -1.0586   1.9549   4.4118
     5.0292   8.6121   9.6712  14.7168

          k = 0.0625 0.1875 0.9375 (  1808 PWs)   bands (ev):

    -9.0583  -9.0074  -9.0034  -8.9935  -8.9635  -0.3917   1.1949   4.2222
     4.8559   8.4723   9.4835  15.6605

          k = 0.0625 0.3125 0.3125 (  1831 PWs)   bands (ev):

    -9.0411  -9.0299  -9.0283  -8.9782  -8.9735  -3.0413   4.4404   5.8230
     7.6501  10.7849  11.1500  11.5096

          k = 0.0625 0.3125 0.4375 (  1831 PWs)   bands (ev):

    -9.0427  -9.0263  -9.0247  -8.9795  -8.9720  -2.6567   3.7341   5.2154
     7.1152  10.7207  11.0649  12.2850

          k = 0.0625 0.3125 0.5625 (  1825 PWs)   bands (ev):

    -9.0457  -9.0230  -9.0182  -8.9823  -8.9699  -2.1564   3.0854   4.6923
     6.2616  10.2840  11.4537  11.7837

          k = 0.0625 0.3125 0.6875 (  1821 PWs)   bands (ev):

    -9.0486  -9.0195  -9.0116  -8.9854  -8.9681  -1.5575   2.4655   4.2710
     5.4187   9.9042  11.1190  12.3103

          k = 0.0625 0.3125 0.8125 (  1820 PWs)   bands (ev):

    -9.0510  -9.0162  -9.0064  -8.9883  -8.9669  -0.9000   1.8393   3.9590
     4.7928   9.6385  10.7996  13.1312

          k = 0.0625 0.3125 0.9375 (  1812 PWs)   bands (ev):

    -9.0522  -9.0142  -9.0036  -8.9900  -8.9664  -0.3222   1.2843   3.7816
     4.4815   9.5030  10.6410  14.0377

          k = 0.0625 0.4375 0.4375 (  1831 PWs)   bands (ev):

    -9.0411  -9.0254  -9.0234  -8.9776  -8.9734  -2.2886   3.0987   4.6332
     7.0530  10.3437  11.8545  12.1146

          k = 0.0625 0.4375 0.5625 (  1823 PWs)   bands (ev):

    -9.0420  -9.0246  -9.0182  -8.9788  -8.9727  -1.8172   2.5420   4.1482
     6.4518  10.2844  11.5780  12.9274

          k = 0.0625 0.4375 0.6875 (  1817 PWs)   bands (ev):

    -9.0437  -9.0234  -9.0119  -8.9820  -8.9709  -1.2694   2.0650   3.7917
     5.5765  10.6376  11.3134  12.5434

          k = 0.0625 0.4375 0.8125 (  1817 PWs)   bands (ev):

    -9.0452  -9.0219  -9.0066  -8.9851  -8.9696  -0.7036   1.6568   3.5878
     4.7534  10.8199  11.5308  12.3123

          k = 0.0625 0.4375 0.9375 (  1813 PWs)   bands (ev):

    -9.0460  -9.0209  -9.0036  -8.9870  -8.9690  -0.2691   1.3528   3.5413
     4.2138  10.7577  11.8699  12.5959

          k = 0.0625 0.5625 0.5625 (  1813 PWs)   bands (ev):

    -9.0417  -9.0231  -9.0165  -8.9771  -8.9748  -1.3971   2.0744   3.7104
     6.3521   9.5501  12.8553  13.0823

          k = 0.0625 0.5625 0.6875 (  1814 PWs)   bands (ev):

    -9.0434  -9.0218  -9.0117  -8.9810  -8.9721  -0.9399   1.7124   3.4297
     5.7672   9.5253  12.6644  13.9253

          k = 0.0625 0.5625 0.8125 (  1818 PWs)   bands (ev):

    -9.0451  -9.0212  -9.0067  -8.9848  -8.9701  -0.5251   1.4706   3.3602
     4.9421  10.0267  12.3926  13.1978

          k = 0.0625 0.6875 0.6875 (  1816 PWs)   bands (ev):

    -9.0470  -9.0170  -9.0103  -8.9842  -8.9700  -0.6327   1.4643   3.2647
     5.7220   8.8453  12.9370  14.1240

          k = 0.0625 0.6875 0.8125 (  1813 PWs)   bands (ev):

    -9.0503  -9.0148  -9.0065  -8.9878  -8.9677  -0.4186   1.3327   3.3737
     5.2106   8.9203  11.7094  14.1215

          k = 0.0625 0.8125 0.8125 (  1817 PWs)   bands (ev):

    -9.0554  -9.0091  -9.0056  -8.9913  -8.9651  -0.3886   1.2430   3.6791
     5.2631   8.3317  10.4819  15.5956

          k = 0.1875 0.1875 0.1875 (  1835 PWs)   bands (ev):

    -9.0398  -9.0332  -9.0332  -8.9760  -8.9760  -3.4343   5.2322   7.5745
     7.5746  10.1223  11.1450  11.1452

          k = 0.1875 0.1875 0.3125 (  1826 PWs)   bands (ev):

    -9.0414  -9.0308  -9.0296  -8.9777  -8.9738  -3.1720   4.4493   7.0228
     7.3040  10.2337  10.9315  11.7388

          k = 0.1875 0.1875 0.4375 (  1832 PWs)   bands (ev):

    -9.0446  -9.0264  -9.0247  -8.9803  -8.9711  -2.7835   3.7360   6.4802
     6.4942   9.8793  11.5931  12.3859

          k = 0.1875 0.1875 0.5625 (  1828 PWs)   bands (ev):

    -9.0482  -9.0211  -9.0189  -8.9835  -8.9686  -2.2765   3.0895   5.5513
     6.0104   9.3135  11.4718  13.0805

          k = 0.1875 0.1875 0.6875 (  1817 PWs)   bands (ev):

    -9.0515  -9.0158  -9.0131  -8.9868  -8.9667  -1.6668   2.4722   4.6722
     5.6424   8.8331  10.9645  13.8539

          k = 0.1875 0.1875 0.8125 (  1811 PWs)   bands (ev):

    -9.0540  -9.0115  -9.0083  -8.9897  -8.9655  -0.9918   1.8316   4.0146
     5.3907   8.5001  10.6399  14.7069

          k = 0.1875 0.3125 0.3125 (  1834 PWs)   bands (ev):

    -9.0414  -9.0293  -9.0282  -8.9768  -8.9737  -2.9159   3.6939   6.6032
     7.4567  10.1609  11.1048  11.4299

          k = 0.1875 0.3125 0.4375 (  1832 PWs)   bands (ev):

    -9.0428  -9.0266  -9.0249  -8.9781  -8.9719  -2.5390   3.0259   6.0145
     7.0050  10.2976  10.9722  11.8961

          k = 0.1875 0.3125 0.5625 (  1823 PWs)   bands (ev):

    -9.0451  -9.0234  -9.0196  -8.9806  -8.9699  -2.0532   2.4619   5.3653
     6.2832   9.8565  11.5247  12.6109

          k = 0.1875 0.3125 0.6875 (  1815 PWs)   bands (ev):

    -9.0474  -9.0199  -9.0140  -8.9835  -8.9685  -1.4829   1.9987   4.5998
     5.7087   9.3986  12.0187  12.4809

          k = 0.1875 0.3125 0.8125 (  1818 PWs)   bands (ev):

    -9.0493  -9.0168  -9.0092  -8.9862  -8.9678  -0.8853   1.6179   3.8483
     5.3686   9.0804  11.8393  13.2297

          k = 0.1875 0.4375 0.4375 (  1825 PWs)   bands (ev):

    -9.0419  -9.0252  -9.0241  -8.9762  -8.9729  -2.1842   2.4078   5.4851
     7.0402  10.2923  11.3508  11.3937

          k = 0.1875 0.4375 0.5625 (  1817 PWs)   bands (ev):

    -9.0425  -9.0246  -9.0198  -8.9773  -8.9721  -1.7399   1.9183   4.9599
     6.5092  10.3600  10.9013  12.4734

          k = 0.1875 0.4375 0.6875 (  1810 PWs)   bands (ev):

    -9.0436  -9.0235  -9.0143  -8.9801  -8.9709  -1.2488   1.5859   4.4260
     5.7691  10.4002  10.9480  13.5310

          k = 0.1875 0.4375 0.8125 (  1815 PWs)   bands (ev):

    -9.0446  -9.0222  -9.0095  -8.9830  -8.9702  -0.7987   1.4435   3.8414
     5.2043  10.1594  11.6231  13.3174

          k = 0.1875 0.5625 0.5625 (  1816 PWs)   bands (ev):

    -9.0422  -9.0235  -9.0184  -8.9760  -8.9736  -1.3749   1.5284   4.5381
     6.4276   9.6866  12.1214  12.1619

          k = 0.1875 0.5625 0.6875 (  1816 PWs)   bands (ev):

    -9.0434  -9.0226  -9.0142  -8.9796  -8.9716  -1.0308   1.3570   4.1628
     5.8962   9.6732  11.8407  13.5088

          k = 0.1875 0.6875 0.6875 (  1821 PWs)   bands (ev):

    -9.0464  -9.0187  -9.0128  -8.9827  -8.9697  -0.9069   1.3863   3.9357
     5.8342   9.0136  12.9379  13.3089

          k = 0.3125 0.3125 0.3125 (  1841 PWs)   bands (ev):

    -9.0420  -9.0277  -9.0277  -8.9745  -8.9745  -2.6691   2.9537   7.1240
     7.1240   9.7136  11.1890  11.1891

          k = 0.3125 0.3125 0.4375 (  1836 PWs)   bands (ev):

    -9.0429  -9.0264  -9.0250  -8.9758  -8.9721  -2.3105   2.3207   6.7348
     6.7944   9.9330  10.8456  11.4671

          k = 0.3125 0.3125 0.5625 (  1821 PWs)   bands (ev):

    -9.0440  -9.0242  -9.0212  -8.9779  -8.9703  -1.8606   1.8266   5.9081
     6.3615   9.7852  11.3118  11.9275

          k = 0.3125 0.3125 0.6875 (  1811 PWs)   bands (ev):

    -9.0453  -9.0214  -9.0168  -8.9803  -8.9696  -1.3625   1.5013   4.8894
     6.0522   9.3431  12.2654  12.5495

          k = 0.3125 0.4375 0.4375 (  1827 PWs)   bands (ev):

    -9.0430  -9.0250  -9.0249  -8.9741  -8.9724  -1.9893   1.7406   6.3928
     6.9923   9.8763  11.0192  11.0315

          k = 0.3125 0.4375 0.5625 (  1819 PWs)   bands (ev):

    -9.0432  -9.0246  -9.0219  -8.9751  -8.9716  -1.6144   1.3412   5.8628
     6.6044  10.1598  10.6598  11.6403

          k = 0.3125 0.4375 0.6875 (  1815 PWs)   bands (ev):

    -9.0433  -9.0237  -9.0180  -8.9773  -8.9712  -1.2625   1.1927   5.0733
     6.1664   9.9533  11.0861  12.5336

          k = 0.3125 0.5625 0.5625 (  1824 PWs)   bands (ev):

    -9.0430  -9.0241  -9.0211  -8.9745  -8.9723  -1.3863   1.1021   5.5426
     6.5644   9.8976  11.1920  11.5357

          k = 0.4375 0.4375 0.4375 (  1823 PWs)   bands (ev):

    -9.0437  -9.0248  -9.0248  -8.9724  -8.9724  -1.7401   1.2405   6.8873
     6.8874   9.5003  10.9271  10.9272

          k = 0.4375 0.4375 0.5625 (  1819 PWs)   bands (ev):

    -9.0437  -9.0245  -9.0235  -8.9731  -8.9717  -1.5096   0.9990   6.4689
     6.7320   9.7956  10.7689  11.1056

     the Fermi energy is     5.5213 ev

!    total energy              =    -317.34924880 Ry
     total all-electron energy =     -4373.656691 Ry
     estimated scf accuracy    <       0.00000063 Ry
     smearing contrib. (-TS)   =      -0.00133085 Ry
     internal energy E=F+TS    =    -317.34791795 Ry

     The total energy is F=E-TS. E is the sum of the following terms:
     one-electron contribution =    -124.52815351 Ry
     hartree contribution      =      75.77519945 Ry
     xc contribution           =     -40.62106774 Ry
     ewald contribution        =     -82.24853881 Ry
     one-center paw contrib.   =    -145.72535733 Ry

     convergence has been achieved in  25 iterations

     Forces acting on atoms (cartesian axes, Ry/au):

     atom    1 type  2   force =     0.00000000    0.00000000   -0.00000000
     atom    2 type  1   force =     0.00000000    0.00000000   -0.00000000

     Total force =     0.000000     Total SCF correction =     0.000000


     Computing stress (Cartesian axis) and pressure

          total   stress  (Ry/bohr**3)                   (kbar)     P=       71.04
   0.00048294   0.00000000  -0.00000000           71.04        0.00       -0.00
   0.00000000   0.00048294  -0.00000000            0.00       71.04       -0.00
  -0.00000000  -0.00000000   0.00048294           -0.00       -0.00       71.04


     Writing all to output data dir /home/nico-sachs/source/q-e/tempdir/al.save/ :
     XML data file, charge density, pseudopotentials, collected wavefunctions

     init_run     :      2.15s CPU      2.25s WALL (       1 calls)
     electrons    :    112.58s CPU    116.83s WALL (       1 calls)
     forces       :      0.46s CPU      0.50s WALL (       1 calls)
     stress       :      2.19s CPU      2.31s WALL (       1 calls)

     Called by init_run:
     wfcinit      :      0.93s CPU      0.93s WALL (       1 calls)
     potinit      :      0.53s CPU      0.58s WALL (       1 calls)
     hinit0       :      0.60s CPU      0.60s WALL (       1 calls)

     Called by electrons:
     c_bands      :     91.89s CPU     93.07s WALL (      26 calls)
     sum_band     :      9.82s CPU     11.00s WALL (      26 calls)
     v_of_rho     :      0.47s CPU      0.49s WALL (      26 calls)
     newd         :      2.20s CPU      3.18s WALL (      26 calls)
     PAW_pot      :      8.45s CPU      9.45s WALL (      26 calls)
     mix_rho      :      0.07s CPU      0.07s WALL (      26 calls)

     Called by c_bands:
     init_us_2    :      1.63s CPU      1.65s WALL (    3300 calls)
     ccgdiagg     :     75.12s CPU     76.21s WALL (    1560 calls)
     wfcrot       :     16.70s CPU     16.79s WALL (    1500 calls)

     Called by *cgdiagg:
     h_psi        :     59.90s CPU     60.68s WALL (   63966 calls)
     s_psi        :     15.16s CPU     15.36s WALL (  126432 calls)

     Called by h_psi:
     h_psi:calbec :     10.83s CPU     10.96s WALL (   63966 calls)
     vloc_psi     :     40.02s CPU     40.58s WALL (   63966 calls)
                                        0.00s GPU  (   63966 calls)
     add_vuspsi   :      8.57s CPU      8.67s WALL (   63966 calls)
     hs_1psi      :     54.17s CPU     54.96s WALL (   62466 calls)
     s_1psi       :     15.86s CPU     16.06s WALL (   62466 calls)

     General routines
     calbec       :     22.63s CPU     22.90s WALL (  129012 calls)
     fft          :      0.37s CPU      0.38s WALL (     362 calls)
     ffts         :      0.20s CPU      0.20s WALL (      52 calls)
     fftw         :     38.10s CPU     38.60s WALL (  179772 calls)
     interpolate  :      0.21s CPU      0.21s WALL (      26 calls)

     Parallel routines

     PWSCF        :   1m57.56s CPU   2m 2.11s WALL


   This run was terminated on:  16:21:19  26Jan2026            

=------------------------------------------------------------------------------=
   JOB DONE.
=------------------------------------------------------------------------------=
