
     Program PWSCF v.7.5 starts on 27Jan2026 at 15:48: 1 

     This program is part of the open-source Quantum ESPRESSO suite
     for quantum simulation of materials; please cite
         "P. Giannozzi et al., J. Phys.:Condens. Matter 21 395502 (2009);
         "P. Giannozzi et al., J. Phys.:Condens. Matter 29 465901 (2017);
         "P. Giannozzi et al., J. Chem. Phys. 152 154105 (2020);
          URL http://www.quantum-espresso.org", 
     in publications or presentations arising from this work. More details at
     http://www.quantum-espresso.org/quote

     Parallel version (MPI), running on     4 processors

     MPI processes distributed on     1 nodes
     23223 MiB available memory on the printing compute node when the environment starts

     Waiting for input...
     Reading input from standard input

     Current dimensions of program PWSCF are:
     Max number of different atomic species (ntypx) = 10
     Max number of k-points (npk) =  40000
     Max angular momentum in pseudopotentials (lmaxx) =  4
     file Ga.pbe-dn-kjpaw_psl.1.0.0.UPF: wavefunction(s)  4S renormalized
     Message from routine set_cutoff:
     ecutrho < 4*ecutwfc, are you sure?

     R & G space division:  proc/nbgrp/npool/nimage =       4
     Subspace diagonalization in iterative solution of the eigenvalue problem:
     a serial algorithm will be used


     Parallelization info
     --------------------
     sticks:   dense  smooth     PW     G-vecs:    dense   smooth      PW
     Min         250     250     88                10432    10432    2171
     Max         251     251     92                10439    10439    2174
     Sum        1003    1003    361                41745    41745    8689

     Using Slab Decomposition



     bravais-lattice index     =            4
     lattice parameter (alat)  =       6.0263  a.u.
     unit-cell volume          =     308.1662 (a.u.)^3
     number of atoms/cell      =            4
     number of atomic types    =            2
     number of electrons       =        36.00
     number of Kohn-Sham states=           18
     kinetic-energy cutoff     =     123.3333  Ry
     charge density cutoff     =     400.0000  Ry
     scf convergence threshold =      1.0E-06
     mixing beta               =       0.7000
     number of iterations used =            8  plain     mixing
     Exchange-correlation= PBE
                           (   1   4   3   4   0   0   0)

     celldm(1)=   6.026337  celldm(2)=   0.000000  celldm(3)=   1.625902
     celldm(4)=   0.000000  celldm(5)=   0.000000  celldm(6)=   0.000000

     crystal axes: (cart. coord. in units of alat)
               a(1) = (   1.000000   0.000000   0.000000 )  
               a(2) = (  -0.500000   0.866025   0.000000 )  
               a(3) = (   0.000000   0.000000   1.625902 )  

     reciprocal axes: (cart. coord. in units 2 pi/alat)
               b(1) = (  1.000000  0.577350 -0.000000 )  
               b(2) = (  0.000000  1.154701  0.000000 )  
               b(3) = (  0.000000 -0.000000  0.615043 )  


     PseudoPot. # 1 for Ga read from file:
     /home/nico-sachs/source/q-e/SSSP_1.3.0_PBE_efficiency/Ga.pbe-dn-kjpaw_psl.1.0.0.UPF
     MD5 check sum: a27b4342b1af7e5f338de752e9ed7044
     Pseudo is Projector augmented-wave + core cor, Zval = 13.0
     Generated using "atomic" code by A. Dal Corso  v.5.1
     Shape of augmentation charge: PSQ
     Using radial grid of 1205 points,  6 beta functions with: 
                l(1) =   0
                l(2) =   0
                l(3) =   1
                l(4) =   1
                l(5) =   2
                l(6) =   2
     Q(r) pseudized with 0 coefficients 


     PseudoPot. # 2 for N  read from file:
     /home/nico-sachs/source/q-e/SSSP_1.3.0_PBE_efficiency/N.pbe-n-radius_5.UPF
     MD5 check sum: 16739722b17309cd8fe442a2ace49922
     Pseudo is Ultrasoft + core correction, Zval =  5.0
     Generated using "atomic" code by A. Dal Corso  v.5.1
     Using radial grid of 1085 points,  4 beta functions with: 
                l(1) =   0
                l(2) =   0
                l(3) =   1
                l(4) =   1
     Q(r) pseudized with 0 coefficients 


     atomic species   valence    mass     pseudopotential
     Ga               13.00    69.72300     Ga( 1.00)
     N                 5.00    14.00700     N ( 1.00)

     12 Sym. Ops. (no inversion) found ( 6 have fractional translation)



   Cartesian axes

     site n.     atom                  positions (alat units)
         1        Ga     tau(   1) = (  -0.0000000   0.5773503   0.0000000  )
         2        Ga     tau(   2) = (   0.5000000   0.2886751   0.8129508  )
         3        N      tau(   3) = (  -0.0000000   0.5773503   0.6097131  )
         4        N      tau(   4) = (   0.5000000   0.2886751   1.4226638  )

     number of k points=    21
                       cart. coord. in units 2pi/alat
        k(    1) = (   0.0000000   0.0000000   0.0000000), wk =   0.0138889
        k(    2) = (   0.0000000   0.0000000   0.1537608), wk =   0.0277778
        k(    3) = (   0.0000000   0.0000000  -0.3075217), wk =   0.0138889
        k(    4) = (   0.0000000   0.1924501   0.0000000), wk =   0.0833333
        k(    5) = (   0.0000000   0.1924501   0.1537608), wk =   0.1666667
        k(    6) = (   0.0000000   0.1924501  -0.3075217), wk =   0.0833333
        k(    7) = (   0.0000000   0.3849002   0.0000000), wk =   0.0833333
        k(    8) = (   0.0000000   0.3849002   0.1537608), wk =   0.1666667
        k(    9) = (   0.0000000   0.3849002  -0.3075217), wk =   0.0833333
        k(   10) = (   0.0000000  -0.5773503   0.0000000), wk =   0.0416667
        k(   11) = (   0.0000000  -0.5773503   0.1537608), wk =   0.0833333
        k(   12) = (   0.0000000  -0.5773503  -0.3075217), wk =   0.0416667
        k(   13) = (   0.1666667   0.2886751   0.0000000), wk =   0.0833333
        k(   14) = (   0.1666667   0.2886751   0.1537608), wk =   0.1666667
        k(   15) = (   0.1666667   0.2886751  -0.3075217), wk =   0.0833333
        k(   16) = (   0.1666667   0.4811252   0.0000000), wk =   0.1666667
        k(   17) = (   0.1666667   0.4811252   0.1537608), wk =   0.3333333
        k(   18) = (   0.1666667   0.4811252  -0.3075217), wk =   0.1666667
        k(   19) = (   0.3333333   0.5773503   0.0000000), wk =   0.0277778
        k(   20) = (   0.3333333   0.5773503   0.1537608), wk =   0.0555556
        k(   21) = (   0.3333333   0.5773503  -0.3075217), wk =   0.0277778

     Dense  grid:    41745 G-vectors     FFT dimensions: (  40,  40,  64)

     Estimated max dynamical RAM per process >      53.83 MB

     Estimated total dynamical RAM >     215.30 MB

     Initial potential from superposition of free atoms

     starting charge      35.9941, renormalised to      36.0000
     Starting wfcs are   26 randomized atomic wfcs
     Checking if some PAW data can be deallocated... 

     total cpu time spent up to now is        1.8 secs

     Self-consistent Calculation

     iteration #  1     ecut=   123.33 Ry     beta= 0.70
     CG style diagonalization
     ethr =  1.00E-02,  avg # of iterations =  2.0

     total cpu time spent up to now is        4.0 secs

     total energy              =    -595.57937640 Ry
     estimated scf accuracy    <       1.11469942 Ry

     iteration #  2     ecut=   123.33 Ry     beta= 0.70
     CG style diagonalization
     ethr =  3.10E-03,  avg # of iterations =  4.8

     total cpu time spent up to now is        8.3 secs

     total energy              =    -596.03545447 Ry
     estimated scf accuracy    <       1.05890051 Ry

     iteration #  3     ecut=   123.33 Ry     beta= 0.70
     CG style diagonalization
     ethr =  2.94E-03,  avg # of iterations =  3.8

     total cpu time spent up to now is       11.9 secs

     total energy              =    -596.21735423 Ry
     estimated scf accuracy    <       0.00776290 Ry

     iteration #  4     ecut=   123.33 Ry     beta= 0.70
     CG style diagonalization
     c_bands:  1 eigenvalues not converged
     c_bands:  1 eigenvalues not converged
     c_bands:  1 eigenvalues not converged
     c_bands:  2 eigenvalues not converged
     c_bands:  1 eigenvalues not converged
     c_bands:  1 eigenvalues not converged
     c_bands:  2 eigenvalues not converged
     c_bands:  1 eigenvalues not converged
     ethr =  2.16E-05,  avg # of iterations =  9.9

     total cpu time spent up to now is       21.3 secs

     total energy              =    -596.36034837 Ry
     estimated scf accuracy    <       0.04291964 Ry

     iteration #  5     ecut=   123.33 Ry     beta= 0.70
     CG style diagonalization
     c_bands:  1 eigenvalues not converged
     ethr =  2.16E-05,  avg # of iterations =  4.3

     total cpu time spent up to now is       26.2 secs

     total energy              =    -596.36403067 Ry
     estimated scf accuracy    <       0.06625371 Ry

     iteration #  6     ecut=   123.33 Ry     beta= 0.70
     CG style diagonalization
     ethr =  2.16E-05,  avg # of iterations =  6.0

     total cpu time spent up to now is       33.2 secs

     total energy              =    -596.37169985 Ry
     estimated scf accuracy    <       0.04397270 Ry

     iteration #  7     ecut=   123.33 Ry     beta= 0.70
     CG style diagonalization
     ethr =  2.16E-05,  avg # of iterations =  4.6

     total cpu time spent up to now is       37.3 secs

     total energy              =    -596.37041621 Ry
     estimated scf accuracy    <       0.05172656 Ry

     iteration #  8     ecut=   123.33 Ry     beta= 0.70
     CG style diagonalization
     ethr =  2.16E-05,  avg # of iterations =  3.2

     total cpu time spent up to now is       40.3 secs

     total energy              =    -596.36927444 Ry
     estimated scf accuracy    <       0.01964266 Ry

     iteration #  9     ecut=   123.33 Ry     beta= 0.70
     CG style diagonalization
     ethr =  2.16E-05,  avg # of iterations =  3.1

     total cpu time spent up to now is       43.1 secs

     total energy              =    -596.36953416 Ry
     estimated scf accuracy    <       0.01067017 Ry

     iteration # 10     ecut=   123.33 Ry     beta= 0.70
     CG style diagonalization
     ethr =  2.16E-05,  avg # of iterations =  3.0

     total cpu time spent up to now is       46.0 secs

     total energy              =    -596.36785055 Ry
     estimated scf accuracy    <       0.00890538 Ry

     iteration # 11     ecut=   123.33 Ry     beta= 0.70
     CG style diagonalization
     ethr =  2.16E-05,  avg # of iterations =  3.5

     total cpu time spent up to now is       49.3 secs

     total energy              =    -596.36876115 Ry
     estimated scf accuracy    <       0.00012566 Ry

     iteration # 12     ecut=   123.33 Ry     beta= 0.70
     CG style diagonalization
     c_bands:  1 eigenvalues not converged
     c_bands:  1 eigenvalues not converged
     c_bands:  1 eigenvalues not converged
     c_bands:  1 eigenvalues not converged
     c_bands:  1 eigenvalues not converged
     c_bands:  1 eigenvalues not converged
     c_bands:  2 eigenvalues not converged
     c_bands:  1 eigenvalues not converged
     ethr =  3.49E-07,  avg # of iterations =  9.0

     total cpu time spent up to now is       57.3 secs

     total energy              =    -596.37008567 Ry
     estimated scf accuracy    <       0.00020626 Ry

     iteration # 13     ecut=   123.33 Ry     beta= 0.70
     CG style diagonalization
     ethr =  3.49E-07,  avg # of iterations =  6.9

     total cpu time spent up to now is       63.4 secs

     total energy              =    -596.36997693 Ry
     estimated scf accuracy    <       0.00170655 Ry

     iteration # 14     ecut=   123.33 Ry     beta= 0.70
     CG style diagonalization
     ethr =  3.49E-07,  avg # of iterations =  5.3

     total cpu time spent up to now is       68.1 secs

     total energy              =    -596.36999185 Ry
     estimated scf accuracy    <       0.00049367 Ry

     iteration # 15     ecut=   123.33 Ry     beta= 0.70
     CG style diagonalization
     ethr =  3.49E-07,  avg # of iterations =  3.8

     total cpu time spent up to now is       71.7 secs

     total energy              =    -596.37002559 Ry
     estimated scf accuracy    <       0.00021572 Ry

     iteration # 16     ecut=   123.33 Ry     beta= 0.70
     CG style diagonalization
     ethr =  3.49E-07,  avg # of iterations =  3.2

     total cpu time spent up to now is       74.7 secs

     total energy              =    -596.37000261 Ry
     estimated scf accuracy    <       0.00024409 Ry

     iteration # 17     ecut=   123.33 Ry     beta= 0.70
     CG style diagonalization
     ethr =  3.49E-07,  avg # of iterations =  3.1

     total cpu time spent up to now is       77.6 secs

     total energy              =    -596.37000007 Ry
     estimated scf accuracy    <       0.00010741 Ry

     iteration # 18     ecut=   123.33 Ry     beta= 0.70
     CG style diagonalization
     ethr =  2.98E-07,  avg # of iterations =  3.1

     total cpu time spent up to now is       80.4 secs

     total energy              =    -596.37000349 Ry
     estimated scf accuracy    <       0.00008912 Ry

     iteration # 19     ecut=   123.33 Ry     beta= 0.70
     CG style diagonalization
     ethr =  2.48E-07,  avg # of iterations =  3.1

     total cpu time spent up to now is       83.3 secs

     total energy              =    -596.37002062 Ry
     estimated scf accuracy    <       0.00007358 Ry

     iteration # 20     ecut=   123.33 Ry     beta= 0.70
     CG style diagonalization
     ethr =  2.04E-07,  avg # of iterations =  3.7

     total cpu time spent up to now is       86.7 secs

     total energy              =    -596.36996588 Ry
     estimated scf accuracy    <       0.00016521 Ry

     iteration # 21     ecut=   123.33 Ry     beta= 0.70
     CG style diagonalization
     ethr =  2.04E-07,  avg # of iterations =  4.6

     total cpu time spent up to now is       90.9 secs

     total energy              =    -596.37000659 Ry
     estimated scf accuracy    <       0.00000346 Ry

     iteration # 22     ecut=   123.33 Ry     beta= 0.70
     CG style diagonalization
     c_bands:  1 eigenvalues not converged
     c_bands:  1 eigenvalues not converged
     c_bands:  1 eigenvalues not converged
     ethr =  9.60E-09,  avg # of iterations =  9.9

     total cpu time spent up to now is       99.8 secs

     total energy              =    -596.37004155 Ry
     estimated scf accuracy    <       0.00000393 Ry

     iteration # 23     ecut=   123.33 Ry     beta= 0.70
     CG style diagonalization
     ethr =  9.60E-09,  avg # of iterations =  5.4

     total cpu time spent up to now is      104.8 secs

     total energy              =    -596.37003969 Ry
     estimated scf accuracy    <       0.00001499 Ry

     iteration # 24     ecut=   123.33 Ry     beta= 0.70
     CG style diagonalization
     ethr =  9.60E-09,  avg # of iterations =  4.9

     total cpu time spent up to now is      109.4 secs

     total energy              =    -596.37004089 Ry
     estimated scf accuracy    <       0.00000149 Ry

     iteration # 25     ecut=   123.33 Ry     beta= 0.70
     CG style diagonalization
     ethr =  4.14E-09,  avg # of iterations =  5.3

     total cpu time spent up to now is      114.2 secs

     End of self-consistent calculation

          k = 0.0000 0.0000 0.0000 (  7139 PWs)   bands (ev):

    -6.2586  -5.3513  -3.7610  -3.7401  -3.7401  -3.6782  -3.6782  -3.4922
    -3.4922  -3.3928  -3.3928  -2.1361   2.6384   8.6785   8.6785   9.6633
     9.7255   9.7255

          k = 0.0000 0.0000 0.1538 (  7157 PWs)   bands (ev):

    -6.0831  -5.4236  -3.7364  -3.7364  -3.7038  -3.6922  -3.6922  -3.4727
    -3.4727  -3.4028  -3.4028  -2.6881   3.6928   8.1704   8.8251   8.8251
     9.5655   9.5655

          k = 0.0000 0.0000-0.3075 (  7186 PWs)   bands (ev):

    -5.6977  -5.6977  -3.7193  -3.7193  -3.7193  -3.7193  -3.4332  -3.4332
    -3.4332  -3.4332  -3.4070  -3.4070   5.8628   5.8628   9.1885   9.1885
     9.1885   9.1885

          k = 0.0000 0.1925 0.0000 (  7143 PWs)   bands (ev):

    -6.0072  -5.2932  -3.7280  -3.7064  -3.6635  -3.6285  -3.6277  -3.5132
    -3.4908  -3.4290  -3.3873  -1.9515   3.0228   7.0023   8.0048   8.1717
     9.3763   9.4890

          k = 0.0000 0.1925 0.1538 (  7141 PWs)   bands (ev):

    -5.8566  -5.3424  -3.7186  -3.6986  -3.6698  -3.6427  -3.6040  -3.4758
    -3.4727  -3.4296  -3.3997  -2.4648   3.9347   7.1182   7.4486   8.3484
     9.0109   9.2773

          k = 0.0000 0.1925-0.3075 (  7124 PWs)   bands (ev):

    -5.5443  -5.5443  -3.6940  -3.6940  -3.6742  -3.6742  -3.5169  -3.5169
    -3.4334  -3.4334  -3.1674  -3.1674   5.6987   5.6987   8.0827   8.0827
     8.7956   8.7956

          k = 0.0000 0.3849 0.0000 (  7122 PWs)   bands (ev):

    -5.5475  -5.2152  -3.6907  -3.6716  -3.5936  -3.5305  -3.5287  -3.4948
    -3.4462  -3.3763  -3.0742  -1.5892   3.7562   4.8348   5.8327   7.3415
     8.4333   8.9909

          k = 0.0000 0.3849 0.1538 (  7133 PWs)   bands (ev):

    -5.4629  -5.2285  -3.6982  -3.6495  -3.6256  -3.5471  -3.5300  -3.4781
    -3.4390  -3.3903  -2.9576  -1.9449   3.7678   5.0291   6.0364   7.5544
     8.5354   8.7132

          k = 0.0000 0.3849-0.3075 (  7122 PWs)   bands (ev):

    -5.3083  -5.3083  -3.6820  -3.6820  -3.5967  -3.5967  -3.4961  -3.4961
    -3.4177  -3.4177  -2.5633  -2.5633   4.2519   4.2519   7.6317   7.6317
     8.1024   8.1024

          k = 0.0000-0.5774 0.0000 (  7132 PWs)   bands (ev):

    -5.3689  -5.1943  -3.6938  -3.6698  -3.5757  -3.5321  -3.4843  -3.4780
    -3.4024  -3.3675  -2.2522  -1.7123   3.2792   4.4586   5.4919   6.9800
     7.4893   8.7473

          k = 0.0000-0.5774 0.1538 (  7126 PWs)   bands (ev):

    -5.3179  -5.1944  -3.7063  -3.6408  -3.6181  -3.5351  -3.5063  -3.4377
    -3.4011  -3.3799  -2.1966  -1.8077   3.0117   3.8639   6.4149   7.2059
     8.0181   8.4458

          k = 0.0000-0.5774-0.3075 (  7128 PWs)   bands (ev):

    -5.2299  -5.2299  -3.6959  -3.6959  -3.5709  -3.5709  -3.4617  -3.4617
    -3.3951  -3.3951  -2.0251  -2.0251   3.1286   3.1286   7.7895   7.7895
     7.8155   7.8155

          k = 0.1667 0.2887 0.0000 (  7125 PWs)   bands (ev):

    -5.6513  -5.2303  -3.6954  -3.6727  -3.6042  -3.5802  -3.5321  -3.4713
    -3.4605  -3.4144  -3.2542  -1.6568   3.6600   5.6783   6.0554   7.3248
     8.7161   8.8011

          k = 0.1667 0.2887 0.1538 (  7110 PWs)   bands (ev):

    -5.5488  -5.2508  -3.6781  -3.6750  -3.6185  -3.6050  -3.5111  -3.5051
    -3.4377  -3.4216  -3.1467  -2.0762   4.0805   5.7185   6.2990   7.2867
     8.4075   8.7909

          k = 0.1667 0.2887-0.3075 (  7140 PWs)   bands (ev):

    -5.3563  -5.3563  -3.6580  -3.6579  -3.6306  -3.6306  -3.5269  -3.5269
    -3.4229  -3.4229  -2.7522  -2.7522   4.8874   4.8874   7.6061   7.6061
     7.9164   7.9164

          k = 0.1667 0.4811 0.0000 (  7127 PWs)   bands (ev):

    -5.3580  -5.1994  -3.7166  -3.6342  -3.5462  -3.5313  -3.5101  -3.4897
    -3.4280  -3.3940  -2.4156  -1.5040   3.7170   4.6718   5.5239   6.0983
     7.6982   7.9656

          k = 0.1667 0.4811 0.1538 (  7128 PWs)   bands (ev):

    -5.3081  -5.1966  -3.6862  -3.6513  -3.5971  -3.5329  -3.5110  -3.4688
    -3.4205  -3.4105  -2.3214  -1.6758   3.4523   4.2393   5.9659   6.7332
     7.5274   8.2189

          k = 0.1667 0.4811-0.3075 (  7122 PWs)   bands (ev):

    -5.2252  -5.2252  -3.6608  -3.6608  -3.5908  -3.5908  -3.4891  -3.4891
    -3.4130  -3.4130  -2.0394  -2.0394   3.5816   3.5816   6.6759   6.6759
     8.0608   8.0608

          k = 0.3333 0.5774 0.0000 (  7134 PWs)   bands (ev):

    -5.2351  -5.2351  -3.7456  -3.5386  -3.5386  -3.5203  -3.5064  -3.5064
    -3.4595  -3.4122  -1.7176  -1.7176   4.3955   4.3955   4.4462   6.7169
     6.7169   7.0342

          k = 0.3333 0.5774 0.1538 (  7104 PWs)   bands (ev):

    -5.2125  -5.2125  -3.7054  -3.5920  -3.5920  -3.5291  -3.4658  -3.4658
    -3.4640  -3.4481  -1.7120  -1.7120   3.9079   3.9079   4.7445   6.5287
     7.5196   7.5196

          k = 0.3333 0.5774-0.3075 (  7122 PWs)   bands (ev):

    -5.1892  -5.1892  -3.6244  -3.6244  -3.6065  -3.6065  -3.4713  -3.4713
    -3.4467  -3.4467  -1.7061  -1.7061   3.5643   3.5643   5.5443   5.5443
     8.2340   8.2340

     highest occupied level (ev):     9.7255

!    total energy              =    -596.37004205 Ry
     estimated scf accuracy    <       0.00000002 Ry

     The total energy is the sum of the following terms:
     one-electron contribution =    -181.38294321 Ry
     hartree contribution      =     130.16127540 Ry
     xc contribution           =     -87.88161131 Ry
     ewald contribution        =    -233.28276133 Ry
     one-center paw contrib.   =    -223.98400161 Ry

     convergence has been achieved in  25 iterations

     Forces acting on atoms (cartesian axes, Ry/au):

     atom    1 type  1   force =     0.00000000    0.00000000   -0.00484346
     atom    2 type  1   force =     0.00000000   -0.00000000   -0.00484346
     atom    3 type  2   force =     0.00000000    0.00000000    0.00484346
     atom    4 type  2   force =    -0.00000000   -0.00000000    0.00484346

     Total force =     0.009687     Total SCF correction =     0.000041


     Computing stress (Cartesian axis) and pressure

          total   stress  (Ry/bohr**3)                   (kbar)     P=       53.61
   0.00032594   0.00000000   0.00000000           47.95        0.00        0.00
   0.00000000   0.00032594   0.00000000            0.00       47.95        0.00
   0.00000000   0.00000000   0.00044151            0.00        0.00       64.95


     Writing all to output data dir /home/nico-sachs/source/q-e/tempdir/gan.save/ :
     XML data file, charge density, pseudopotentials, collected wavefunctions

     init_run     :      1.60s CPU      1.68s WALL (       1 calls)
     electrons    :    109.59s CPU    112.32s WALL (       1 calls)
     forces       :      0.45s CPU      0.45s WALL (       1 calls)
     stress       :      1.86s CPU      1.86s WALL (       1 calls)

     Called by init_run:
     wfcinit      :      0.90s CPU      0.93s WALL (       1 calls)
     potinit      :      0.24s CPU      0.27s WALL (       1 calls)
     hinit0       :      0.34s CPU      0.35s WALL (       1 calls)

     Called by electrons:
     c_bands      :     95.65s CPU     98.18s WALL (      25 calls)
     sum_band     :      6.53s CPU      6.72s WALL (      25 calls)
     v_of_rho     :      0.31s CPU      0.32s WALL (      26 calls)
     newd         :      1.10s CPU      1.12s WALL (      26 calls)
     PAW_pot      :      6.15s CPU      6.18s WALL (      26 calls)
     mix_rho      :      0.09s CPU      0.09s WALL (      25 calls)

     Called by c_bands:
     init_us_2    :      1.02s CPU      1.03s WALL (    1113 calls)
     ccgdiagg     :     81.52s CPU     83.70s WALL (     525 calls)
     wfcrot       :     14.24s CPU     14.60s WALL (     525 calls)

     Called by *cgdiagg:
     h_psi        :     53.12s CPU     55.07s WALL (   36464 calls)
     s_psi        :     18.20s CPU     18.49s WALL (   72403 calls)

     Called by h_psi:
     h_psi:calbec :     14.12s CPU     14.66s WALL (   36464 calls)
     vloc_psi     :     27.97s CPU     29.07s WALL (   36464 calls)
                                        0.00s GPU  (   36464 calls)
     add_vuspsi   :     10.50s CPU     10.80s WALL (   36464 calls)
     hs_1psi      :     52.11s CPU     53.91s WALL (   35939 calls)
     s_1psi       :     19.82s CPU     20.07s WALL (   35939 calls)

     General routines
     calbec       :     29.24s CPU     29.99s WALL (   73285 calls)
     fft          :      0.29s CPU      0.29s WALL (     311 calls)
     ffts         :      0.01s CPU      0.01s WALL (      25 calls)
     fftw         :     25.72s CPU     26.84s WALL (  100564 calls)

     Parallel routines

     PWSCF        :   1m53.70s CPU   1m56.58s WALL


   This run was terminated on:  15:49:58  27Jan2026            

=------------------------------------------------------------------------------=
   JOB DONE.
=------------------------------------------------------------------------------=
