
     Program PWSCF v.7.5 starts on 25Feb2026 at 12: 0:32 
        Git branch: develop
        Last git commit: 797f00f1d3f390f642411209b167af6668f3cb83
        Last git commit date: Mon Dec 8 18:25:28 2025 +0000
        Last git commit subject: Merge branch 'uniform_uv' into 'develop'

     This program is part of the open-source Quantum ESPRESSO suite
     for quantum simulation of materials; please cite
         "P. Giannozzi et al., J. Phys.:Condens. Matter 21 395502 (2009);
         "P. Giannozzi et al., J. Phys.:Condens. Matter 29 465901 (2017);
         "P. Giannozzi et al., J. Chem. Phys. 152 154105 (2020);
          URL http://www.quantum-espresso.org", 
     in publications or presentations arising from this work. More details at
     http://www.quantum-espresso.org/quote

     Parallel version (MPI), running on   256 processors

     MPI processes distributed on     1 nodes
     1538300 MiB available memory on the printing compute node when the environment starts

     Waiting for input...
     Reading input from standard input

     Current dimensions of program PWSCF are:
     Max number of different atomic species (ntypx) = 10
     Max number of k-points (npk) =  40000
     Max angular momentum in pseudopotentials (lmaxx) =  4

     K-points division:     npool     =      16
     R & G space division:  proc/nbgrp/npool/nimage =      16
     Subspace diagonalization in iterative solution of the eigenvalue problem:
     a serial algorithm will be used


     Parallelization info
     --------------------
     sticks:   dense  smooth     PW     G-vecs:    dense   smooth      PW
     Min         145      95     28                 4599     2495     410
     Max         147      96     29                 4601     2499     412
     Sum        2335    1531    463                73601    39957    6567

     Using Slab Decomposition



     bravais-lattice index     =            2
     lattice parameter (alat)  =      10.5849  a.u.
     unit-cell volume          =     296.4844 (a.u.)^3
     number of atoms/cell      =            2
     number of atomic types    =            2
     number of electrons       =        28.00
     number of Kohn-Sham states=           16
     kinetic-energy cutoff     =     100.0000  Ry
     charge density cutoff     =     600.0000  Ry
     scf convergence threshold =      1.0E-06
     mixing beta               =       0.7000
     number of iterations used =            8  plain     mixing
     Exchange-correlation= SLA  PW   NOGX NOGC
                           (   1   4   0   0   0   0   0)

     celldm(1)=  10.584913  celldm(2)=   0.000000  celldm(3)=   0.000000
     celldm(4)=   0.000000  celldm(5)=   0.000000  celldm(6)=   0.000000

     crystal axes: (cart. coord. in units of alat)
               a(1) = (  -0.500000   0.000000   0.500000 )  
               a(2) = (   0.000000   0.500000   0.500000 )  
               a(3) = (  -0.500000   0.500000   0.000000 )  

     reciprocal axes: (cart. coord. in units 2 pi/alat)
               b(1) = ( -1.000000 -1.000000  1.000000 )  
               b(2) = (  1.000000  1.000000  1.000000 )  
               b(3) = ( -1.000000  1.000000 -1.000000 )  


     PseudoPot. # 1 for Ga read from file:
     /home/sachs/software/q-e/Pseudofolder/nc-sr-04_pw_LDA_standard_upf/Ga.upf
     MD5 check sum: 1297264db1911d3fa8c63c42f023f390
     Pseudo is Norm-conserving + core correction, Zval = 13.0
     Generated using ONCVPSP code by D. R. Hamann
     Using radial grid of 1858 points,  6 beta functions with: 
                l(1) =   0
                l(2) =   0
                l(3) =   1
                l(4) =   1
                l(5) =   2
                l(6) =   2

     PseudoPot. # 2 for As read from file:
     /home/sachs/software/q-e/Pseudofolder/nc-sr-04_pw_LDA_standard_upf/As.upf
     MD5 check sum: 33c531620a5edaf59d417d4ab58437b1
     Pseudo is Norm-conserving + core correction, Zval = 15.0
     Generated using ONCVPSP code by D. R. Hamann
     Using radial grid of 1326 points,  6 beta functions with: 
                l(1) =   0
                l(2) =   0
                l(3) =   1
                l(4) =   1
                l(5) =   2
                l(6) =   2

     atomic species   valence    mass     pseudopotential
     Ga               13.00    69.72300     Ga( 1.00)
     As               15.00    74.92100     As( 1.00)

     24 Sym. Ops. (no inversion) found


                                    s                        frac. trans.

      isym =  1     identity                                     

 cryst.   s( 1) = (     1          0          0      )
                  (     0          1          0      )
                  (     0          0          1      )

 cart.    s( 1) = (  1.0000000  0.0000000  0.0000000 )
                  (  0.0000000  1.0000000  0.0000000 )
                  (  0.0000000  0.0000000  1.0000000 )


      isym =  2     180 deg rotation - cart. axis [0,0,1]        

 cryst.   s( 2) = (     0          1         -1      )
                  (     1          0         -1      )
                  (     0          0         -1      )

 cart.    s( 2) = ( -1.0000000  0.0000000  0.0000000 )
                  (  0.0000000 -1.0000000  0.0000000 )
                  (  0.0000000  0.0000000  1.0000000 )


      isym =  3     180 deg rotation - cart. axis [0,1,0]        

 cryst.   s( 3) = (    -1          0          0      )
                  (    -1          0          1      )
                  (    -1          1          0      )

 cart.    s( 3) = ( -1.0000000  0.0000000  0.0000000 )
                  (  0.0000000  1.0000000  0.0000000 )
                  (  0.0000000  0.0000000 -1.0000000 )


      isym =  4     180 deg rotation - cart. axis [1,0,0]        

 cryst.   s( 4) = (     0         -1          1      )
                  (     0         -1          0      )
                  (     1         -1          0      )

 cart.    s( 4) = (  1.0000000  0.0000000  0.0000000 )
                  (  0.0000000 -1.0000000  0.0000000 )
                  (  0.0000000  0.0000000 -1.0000000 )


      isym =  5     120 deg rotation - cart. axis [-1,-1,-1]     

 cryst.   s( 5) = (    -1          0          1      )
                  (    -1          1          0      )
                  (    -1          0          0      )

 cart.    s( 5) = (  0.0000000  1.0000000  0.0000000 )
                  (  0.0000000  0.0000000  1.0000000 )
                  (  1.0000000  0.0000000  0.0000000 )


      isym =  6     120 deg rotation - cart. axis [-1,1,1]       

 cryst.   s( 6) = (     0          1          0      )
                  (     0          0          1      )
                  (     1          0          0      )

 cart.    s( 6) = (  0.0000000 -1.0000000  0.0000000 )
                  (  0.0000000  0.0000000  1.0000000 )
                  ( -1.0000000  0.0000000  0.0000000 )


      isym =  7     120 deg rotation - cart. axis [1,1,-1]       

 cryst.   s( 7) = (     1          0         -1      )
                  (     0          0         -1      )
                  (     0          1         -1      )

 cart.    s( 7) = (  0.0000000  1.0000000  0.0000000 )
                  (  0.0000000  0.0000000 -1.0000000 )
                  ( -1.0000000  0.0000000  0.0000000 )


      isym =  8     120 deg rotation - cart. axis [1,-1,1]       

 cryst.   s( 8) = (     0         -1          0      )
                  (     1         -1          0      )
                  (     0         -1          1      )

 cart.    s( 8) = (  0.0000000 -1.0000000  0.0000000 )
                  (  0.0000000  0.0000000 -1.0000000 )
                  (  1.0000000  0.0000000  0.0000000 )


      isym =  9     120 deg rotation - cart. axis [1,1,1]        

 cryst.   s( 9) = (     0          0         -1      )
                  (     0          1         -1      )
                  (     1          0         -1      )

 cart.    s( 9) = (  0.0000000  0.0000000  1.0000000 )
                  (  1.0000000  0.0000000  0.0000000 )
                  (  0.0000000  1.0000000  0.0000000 )


      isym = 10     120 deg rotation - cart. axis [-1,1,-1]      

 cryst.   s(10) = (    -1          1          0      )
                  (    -1          0          0      )
                  (    -1          0          1      )

 cart.    s(10) = (  0.0000000  0.0000000  1.0000000 )
                  ( -1.0000000  0.0000000  0.0000000 )
                  (  0.0000000 -1.0000000  0.0000000 )


      isym = 11     120 deg rotation - cart. axis [1,-1,-1]      

 cryst.   s(11) = (     0          0          1      )
                  (     1          0          0      )
                  (     0          1          0      )

 cart.    s(11) = (  0.0000000  0.0000000 -1.0000000 )
                  ( -1.0000000  0.0000000  0.0000000 )
                  (  0.0000000  1.0000000  0.0000000 )


      isym = 12     120 deg rotation - cart. axis [-1,-1,1]      

 cryst.   s(12) = (     1         -1          0      )
                  (     0         -1          1      )
                  (     0         -1          0      )

 cart.    s(12) = (  0.0000000  0.0000000 -1.0000000 )
                  (  1.0000000  0.0000000  0.0000000 )
                  (  0.0000000 -1.0000000  0.0000000 )


      isym = 13     inv. 180 deg rotation - cart. axis [1,1,0]   

 cryst.   s(13) = (     0          1          0      )
                  (     1          0          0      )
                  (     0          0          1      )

 cart.    s(13) = (  0.0000000 -1.0000000  0.0000000 )
                  ( -1.0000000  0.0000000  0.0000000 )
                  (  0.0000000  0.0000000  1.0000000 )


      isym = 14     inv. 180 deg rotation - cart. axis [1,-1,0]  

 cryst.   s(14) = (     1          0         -1      )
                  (     0          1         -1      )
                  (     0          0         -1      )

 cart.    s(14) = (  0.0000000  1.0000000  0.0000000 )
                  (  1.0000000  0.0000000  0.0000000 )
                  (  0.0000000  0.0000000  1.0000000 )


      isym = 15     inv.  90 deg rotation - cart. axis [0,0,-1]  

 cryst.   s(15) = (     0         -1          0      )
                  (     0         -1          1      )
                  (     1         -1          0      )

 cart.    s(15) = (  0.0000000 -1.0000000  0.0000000 )
                  (  1.0000000  0.0000000  0.0000000 )
                  (  0.0000000  0.0000000 -1.0000000 )


      isym = 16     inv.  90 deg rotation - cart. axis [0,0,1]   

 cryst.   s(16) = (    -1          0          1      )
                  (    -1          0          0      )
                  (    -1          1          0      )

 cart.    s(16) = (  0.0000000  1.0000000  0.0000000 )
                  ( -1.0000000  0.0000000  0.0000000 )
                  (  0.0000000  0.0000000 -1.0000000 )


      isym = 17     inv. 180 deg rotation - cart. axis [1,0,1]   

 cryst.   s(17) = (     1          0          0      )
                  (     0          0          1      )
                  (     0          1          0      )

 cart.    s(17) = (  0.0000000  0.0000000 -1.0000000 )
                  (  0.0000000  1.0000000  0.0000000 )
                  ( -1.0000000  0.0000000  0.0000000 )


      isym = 18     inv. 180 deg rotation - cart. axis [-1,0,1]  

 cryst.   s(18) = (    -1          0          0      )
                  (    -1          1          0      )
                  (    -1          0          1      )

 cart.    s(18) = (  0.0000000  0.0000000  1.0000000 )
                  (  0.0000000  1.0000000  0.0000000 )
                  (  1.0000000  0.0000000  0.0000000 )


      isym = 19     inv.  90 deg rotation - cart. axis [0,1,0]   

 cryst.   s(19) = (     0         -1          1      )
                  (     1         -1          0      )
                  (     0         -1          0      )

 cart.    s(19) = (  0.0000000  0.0000000 -1.0000000 )
                  (  0.0000000 -1.0000000  0.0000000 )
                  (  1.0000000  0.0000000  0.0000000 )


      isym = 20     inv.  90 deg rotation - cart. axis [0,-1,0]  

 cryst.   s(20) = (     0          1         -1      )
                  (     0          0         -1      )
                  (     1          0         -1      )

 cart.    s(20) = (  0.0000000  0.0000000  1.0000000 )
                  (  0.0000000 -1.0000000  0.0000000 )
                  ( -1.0000000  0.0000000  0.0000000 )


      isym = 21     inv. 180 deg rotation - cart. axis [0,1,1]   

 cryst.   s(21) = (     1         -1          0      )
                  (     0         -1          0      )
                  (     0         -1          1      )

 cart.    s(21) = (  1.0000000  0.0000000  0.0000000 )
                  (  0.0000000  0.0000000 -1.0000000 )
                  (  0.0000000 -1.0000000  0.0000000 )


      isym = 22     inv. 180 deg rotation - cart. axis [0,1,-1]  

 cryst.   s(22) = (     0          0          1      )
                  (     0          1          0      )
                  (     1          0          0      )

 cart.    s(22) = (  1.0000000  0.0000000  0.0000000 )
                  (  0.0000000  0.0000000  1.0000000 )
                  (  0.0000000  1.0000000  0.0000000 )


      isym = 23     inv.  90 deg rotation - cart. axis [-1,0,0]  

 cryst.   s(23) = (     0          0         -1      )
                  (     1          0         -1      )
                  (     0          1         -1      )

 cart.    s(23) = ( -1.0000000  0.0000000  0.0000000 )
                  (  0.0000000  0.0000000 -1.0000000 )
                  (  0.0000000  1.0000000  0.0000000 )


      isym = 24     inv.  90 deg rotation - cart. axis [1,0,0]   

 cryst.   s(24) = (    -1          1          0      )
                  (    -1          0          1      )
                  (    -1          0          0      )

 cart.    s(24) = ( -1.0000000  0.0000000  0.0000000 )
                  (  0.0000000  0.0000000  1.0000000 )
                  (  0.0000000 -1.0000000  0.0000000 )


     point group T_d (-43m) 
     there are  5 classes
     the character table:

       E     8C3   3C2   6S4   6s_d 
A_1    1.00  1.00  1.00  1.00  1.00
A_2    1.00  1.00  1.00 -1.00 -1.00
E      2.00 -1.00  2.00  0.00  0.00
T_1    3.00  0.00 -1.00  1.00 -1.00
T_2    3.00  0.00 -1.00 -1.00  1.00

     the symmetry operations in each class and the name of the first element:

     E        1
          identity                                               
     8C3      5    7    8    6   12    9   10   11
          120 deg rotation - cart. axis [-1,-1,-1]               
     3C2      2    3    4
          180 deg rotation - cart. axis [0,0,1]                  
     6S4     15   16   20   19   23   24
          inv.  90 deg rotation - cart. axis [0,0,-1]            
     6s_d    13   14   17   18   21   22
          inv. 180 deg rotation - cart. axis [1,1,0]             

   Cartesian axes

     site n.     atom                  positions (alat units)
         1        Ga     tau(   1) = (   0.0000000   0.0000000   0.0000000  )
         2        As     tau(   2) = (  -0.2500000   0.2500000   0.2500000  )

   Crystallographic axes

     site n.     atom                  positions (cryst. coord.)
         1        Ga     tau(   1) = (  0.0000000  0.0000000  0.0000000  )
         2        As     tau(   2) = (  0.2500000  0.2500000  0.2500000  )

     number of k points=   770
                       cart. coord. in units 2pi/alat
        k(    1) = (  -0.0250000   0.0250000   0.0250000), wk =   0.0005000
        k(    2) = (  -0.0750000   0.0750000  -0.0250000), wk =   0.0015000
        k(    3) = (  -0.1250000   0.1250000  -0.0750000), wk =   0.0015000
        k(    4) = (  -0.1750000   0.1750000  -0.1250000), wk =   0.0015000
        k(    5) = (  -0.2250000   0.2250000  -0.1750000), wk =   0.0015000
        k(    6) = (  -0.2750000   0.2750000  -0.2250000), wk =   0.0015000
        k(    7) = (  -0.3250000   0.3250000  -0.2750000), wk =   0.0015000
        k(    8) = (  -0.3750000   0.3750000  -0.3250000), wk =   0.0015000
        k(    9) = (  -0.4250000   0.4250000  -0.3750000), wk =   0.0015000
        k(   10) = (  -0.4750000   0.4750000  -0.4250000), wk =   0.0015000
        k(   11) = (   0.4750000  -0.4750000   0.5250000), wk =   0.0015000
        k(   12) = (   0.4250000  -0.4250000   0.4750000), wk =   0.0015000
        k(   13) = (   0.3750000  -0.3750000   0.4250000), wk =   0.0015000
        k(   14) = (   0.3250000  -0.3250000   0.3750000), wk =   0.0015000
        k(   15) = (   0.2750000  -0.2750000   0.3250000), wk =   0.0015000
        k(   16) = (   0.2250000  -0.2250000   0.2750000), wk =   0.0015000
        k(   17) = (   0.1750000  -0.1750000   0.2250000), wk =   0.0015000
        k(   18) = (   0.1250000  -0.1250000   0.1750000), wk =   0.0015000
        k(   19) = (   0.0750000  -0.0750000   0.1250000), wk =   0.0015000
        k(   20) = (   0.0250000  -0.0250000   0.0750000), wk =   0.0015000
        k(   21) = (  -0.0250000   0.1250000   0.0250000), wk =   0.0015000
        k(   22) = (  -0.0750000   0.1750000  -0.0250000), wk =   0.0030000
        k(   23) = (  -0.1250000   0.2250000  -0.0750000), wk =   0.0030000
        k(   24) = (  -0.1750000   0.2750000  -0.1250000), wk =   0.0030000
        k(   25) = (  -0.2250000   0.3250000  -0.1750000), wk =   0.0030000
        k(   26) = (  -0.2750000   0.3750000  -0.2250000), wk =   0.0030000
        k(   27) = (  -0.3250000   0.4250000  -0.2750000), wk =   0.0030000
        k(   28) = (  -0.3750000   0.4750000  -0.3250000), wk =   0.0030000
        k(   29) = (  -0.4250000   0.5250000  -0.3750000), wk =   0.0030000
        k(   30) = (   0.5250000  -0.4250000   0.5750000), wk =   0.0030000
        k(   31) = (   0.4750000  -0.3750000   0.5250000), wk =   0.0030000
        k(   32) = (   0.4250000  -0.3250000   0.4750000), wk =   0.0030000
        k(   33) = (   0.3750000  -0.2750000   0.4250000), wk =   0.0030000
        k(   34) = (   0.3250000  -0.2250000   0.3750000), wk =   0.0030000
        k(   35) = (   0.2750000  -0.1750000   0.3250000), wk =   0.0030000
        k(   36) = (   0.2250000  -0.1250000   0.2750000), wk =   0.0030000
        k(   37) = (   0.1750000  -0.0750000   0.2250000), wk =   0.0030000
        k(   38) = (   0.1250000  -0.0250000   0.1750000), wk =   0.0030000
        k(   39) = (   0.0750000   0.0250000   0.1250000), wk =   0.0030000
        k(   40) = (  -0.0250000   0.2250000   0.0250000), wk =   0.0015000
        k(   41) = (  -0.0750000   0.2750000  -0.0250000), wk =   0.0030000
        k(   42) = (  -0.1250000   0.3250000  -0.0750000), wk =   0.0030000
        k(   43) = (  -0.1750000   0.3750000  -0.1250000), wk =   0.0030000
        k(   44) = (  -0.2250000   0.4250000  -0.1750000), wk =   0.0030000
        k(   45) = (  -0.2750000   0.4750000  -0.2250000), wk =   0.0030000
        k(   46) = (  -0.3250000   0.5250000  -0.2750000), wk =   0.0030000
        k(   47) = (  -0.3750000   0.5750000  -0.3250000), wk =   0.0030000
        k(   48) = (   0.5750000  -0.3750000   0.6250000), wk =   0.0030000
        k(   49) = (   0.5250000  -0.3250000   0.5750000), wk =   0.0030000
        k(   50) = (   0.4750000  -0.2750000   0.5250000), wk =   0.0030000
        k(   51) = (   0.4250000  -0.2250000   0.4750000), wk =   0.0030000
        k(   52) = (   0.3750000  -0.1750000   0.4250000), wk =   0.0030000
        k(   53) = (   0.3250000  -0.1250000   0.3750000), wk =   0.0030000
        k(   54) = (   0.2750000  -0.0750000   0.3250000), wk =   0.0030000
        k(   55) = (   0.2250000  -0.0250000   0.2750000), wk =   0.0030000
        k(   56) = (   0.1750000   0.0250000   0.2250000), wk =   0.0030000
        k(   57) = (   0.1250000   0.0750000   0.1750000), wk =   0.0030000
        k(   58) = (  -0.0250000   0.3250000   0.0250000), wk =   0.0015000
        k(   59) = (  -0.0750000   0.3750000  -0.0250000), wk =   0.0030000
        k(   60) = (  -0.1250000   0.4250000  -0.0750000), wk =   0.0030000
        k(   61) = (  -0.1750000   0.4750000  -0.1250000), wk =   0.0030000
        k(   62) = (  -0.2250000   0.5250000  -0.1750000), wk =   0.0030000
        k(   63) = (  -0.2750000   0.5750000  -0.2250000), wk =   0.0030000
        k(   64) = (  -0.3250000   0.6250000  -0.2750000), wk =   0.0030000
        k(   65) = (   0.6250000  -0.3250000   0.6750000), wk =   0.0030000
        k(   66) = (   0.5750000  -0.2750000   0.6250000), wk =   0.0030000
        k(   67) = (   0.5250000  -0.2250000   0.5750000), wk =   0.0030000
        k(   68) = (   0.4750000  -0.1750000   0.5250000), wk =   0.0030000
        k(   69) = (   0.4250000  -0.1250000   0.4750000), wk =   0.0030000
        k(   70) = (   0.3750000  -0.0750000   0.4250000), wk =   0.0030000
        k(   71) = (   0.3250000  -0.0250000   0.3750000), wk =   0.0030000
        k(   72) = (   0.2750000   0.0250000   0.3250000), wk =   0.0030000
        k(   73) = (   0.2250000   0.0750000   0.2750000), wk =   0.0030000
        k(   74) = (   0.1750000   0.1250000   0.2250000), wk =   0.0030000
        k(   75) = (  -0.0250000   0.4250000   0.0250000), wk =   0.0015000
        k(   76) = (  -0.0750000   0.4750000  -0.0250000), wk =   0.0030000
        k(   77) = (  -0.1250000   0.5250000  -0.0750000), wk =   0.0030000
        k(   78) = (  -0.1750000   0.5750000  -0.1250000), wk =   0.0030000
        k(   79) = (  -0.2250000   0.6250000  -0.1750000), wk =   0.0030000
        k(   80) = (  -0.2750000   0.6750000  -0.2250000), wk =   0.0030000
        k(   81) = (   0.6750000  -0.2750000   0.7250000), wk =   0.0030000
        k(   82) = (   0.6250000  -0.2250000   0.6750000), wk =   0.0030000
        k(   83) = (   0.5750000  -0.1750000   0.6250000), wk =   0.0030000
        k(   84) = (   0.5250000  -0.1250000   0.5750000), wk =   0.0030000
        k(   85) = (   0.4750000  -0.0750000   0.5250000), wk =   0.0030000
        k(   86) = (   0.4250000  -0.0250000   0.4750000), wk =   0.0030000
        k(   87) = (   0.3750000   0.0250000   0.4250000), wk =   0.0030000
        k(   88) = (   0.3250000   0.0750000   0.3750000), wk =   0.0030000
        k(   89) = (   0.2750000   0.1250000   0.3250000), wk =   0.0030000
        k(   90) = (   0.2250000   0.1750000   0.2750000), wk =   0.0030000
        k(   91) = (  -0.0250000   0.5250000   0.0250000), wk =   0.0015000
        k(   92) = (  -0.0750000   0.5750000  -0.0250000), wk =   0.0030000
        k(   93) = (  -0.1250000   0.6250000  -0.0750000), wk =   0.0030000
        k(   94) = (  -0.1750000   0.6750000  -0.1250000), wk =   0.0030000
        k(   95) = (  -0.2250000   0.7250000  -0.1750000), wk =   0.0030000
        k(   96) = (   0.7250000  -0.2250000   0.7750000), wk =   0.0030000
        k(   97) = (   0.6750000  -0.1750000   0.7250000), wk =   0.0030000
        k(   98) = (   0.6250000  -0.1250000   0.6750000), wk =   0.0030000
        k(   99) = (   0.5750000  -0.0750000   0.6250000), wk =   0.0030000
        k(  100) = (   0.5250000  -0.0250000   0.5750000), wk =   0.0030000
        k(  101) = (   0.4750000   0.0250000   0.5250000), wk =   0.0030000
        k(  102) = (   0.4250000   0.0750000   0.4750000), wk =   0.0030000
        k(  103) = (   0.3750000   0.1250000   0.4250000), wk =   0.0030000
        k(  104) = (   0.3250000   0.1750000   0.3750000), wk =   0.0030000
        k(  105) = (   0.2750000   0.2250000   0.3250000), wk =   0.0030000
        k(  106) = (  -0.0250000   0.6250000   0.0250000), wk =   0.0015000
        k(  107) = (  -0.0750000   0.6750000  -0.0250000), wk =   0.0030000
        k(  108) = (  -0.1250000   0.7250000  -0.0750000), wk =   0.0030000
        k(  109) = (  -0.1750000   0.7750000  -0.1250000), wk =   0.0030000
        k(  110) = (   0.7750000  -0.1750000   0.8250000), wk =   0.0030000
        k(  111) = (   0.7250000  -0.1250000   0.7750000), wk =   0.0030000
        k(  112) = (   0.6750000  -0.0750000   0.7250000), wk =   0.0030000
        k(  113) = (   0.6250000  -0.0250000   0.6750000), wk =   0.0030000
        k(  114) = (   0.5750000   0.0250000   0.6250000), wk =   0.0030000
        k(  115) = (   0.5250000   0.0750000   0.5750000), wk =   0.0030000
        k(  116) = (   0.4750000   0.1250000   0.5250000), wk =   0.0030000
        k(  117) = (   0.4250000   0.1750000   0.4750000), wk =   0.0030000
        k(  118) = (   0.3750000   0.2250000   0.4250000), wk =   0.0030000
        k(  119) = (   0.3250000   0.2750000   0.3750000), wk =   0.0030000
        k(  120) = (  -0.0250000   0.7250000   0.0250000), wk =   0.0015000
        k(  121) = (  -0.0750000   0.7750000  -0.0250000), wk =   0.0030000
        k(  122) = (  -0.1250000   0.8250000  -0.0750000), wk =   0.0030000
        k(  123) = (   0.8250000  -0.1250000   0.8750000), wk =   0.0030000
        k(  124) = (   0.7750000  -0.0750000   0.8250000), wk =   0.0030000
        k(  125) = (   0.7250000  -0.0250000   0.7750000), wk =   0.0030000
        k(  126) = (   0.6750000   0.0250000   0.7250000), wk =   0.0030000
        k(  127) = (   0.6250000   0.0750000   0.6750000), wk =   0.0030000
        k(  128) = (   0.5750000   0.1250000   0.6250000), wk =   0.0030000
        k(  129) = (   0.5250000   0.1750000   0.5750000), wk =   0.0030000
        k(  130) = (   0.4750000   0.2250000   0.5250000), wk =   0.0030000
        k(  131) = (   0.4250000   0.2750000   0.4750000), wk =   0.0030000
        k(  132) = (   0.3750000   0.3250000   0.4250000), wk =   0.0030000
        k(  133) = (  -0.0250000   0.8250000   0.0250000), wk =   0.0015000
        k(  134) = (  -0.0750000   0.8750000  -0.0250000), wk =   0.0030000
        k(  135) = (   0.8750000  -0.0750000   0.9250000), wk =   0.0030000
        k(  136) = (   0.8250000  -0.0250000   0.8750000), wk =   0.0030000
        k(  137) = (   0.7750000   0.0250000   0.8250000), wk =   0.0030000
        k(  138) = (   0.7250000   0.0750000   0.7750000), wk =   0.0030000
        k(  139) = (   0.6750000   0.1250000   0.7250000), wk =   0.0030000
        k(  140) = (   0.6250000   0.1750000   0.6750000), wk =   0.0030000
        k(  141) = (   0.5750000   0.2250000   0.6250000), wk =   0.0030000
        k(  142) = (   0.5250000   0.2750000   0.5750000), wk =   0.0030000
        k(  143) = (   0.4750000   0.3250000   0.5250000), wk =   0.0030000
        k(  144) = (   0.4250000   0.3750000   0.4750000), wk =   0.0030000
        k(  145) = (  -0.0250000   0.9250000   0.0250000), wk =   0.0015000
        k(  146) = (   0.9250000  -0.0250000   0.9750000), wk =   0.0030000
        k(  147) = (   0.8750000   0.0250000   0.9250000), wk =   0.0030000
        k(  148) = (   0.8250000   0.0750000   0.8750000), wk =   0.0030000
        k(  149) = (   0.7750000   0.1250000   0.8250000), wk =   0.0030000
        k(  150) = (   0.7250000   0.1750000   0.7750000), wk =   0.0030000
        k(  151) = (   0.6750000   0.2250000   0.7250000), wk =   0.0030000
        k(  152) = (   0.6250000   0.2750000   0.6750000), wk =   0.0030000
        k(  153) = (   0.5750000   0.3250000   0.6250000), wk =   0.0030000
        k(  154) = (   0.5250000   0.3750000   0.5750000), wk =   0.0030000
        k(  155) = (   0.4750000   0.4250000   0.5250000), wk =   0.0030000
        k(  156) = (  -0.0250000  -0.9750000   0.0250000), wk =   0.0015000
        k(  157) = (  -0.0750000  -0.9250000  -0.0250000), wk =   0.0030000
        k(  158) = (  -0.1250000  -0.8750000  -0.0750000), wk =   0.0030000
        k(  159) = (  -0.1750000  -0.8250000  -0.1250000), wk =   0.0030000
        k(  160) = (  -0.2250000  -0.7750000  -0.1750000), wk =   0.0030000
        k(  161) = (  -0.2750000  -0.7250000  -0.2250000), wk =   0.0030000
        k(  162) = (  -0.3250000  -0.6750000  -0.2750000), wk =   0.0030000
        k(  163) = (  -0.3750000  -0.6250000  -0.3250000), wk =   0.0030000
        k(  164) = (  -0.4250000  -0.5750000  -0.3750000), wk =   0.0030000
        k(  165) = (  -0.0250000  -0.8750000   0.0250000), wk =   0.0015000
        k(  166) = (  -0.0750000  -0.8250000  -0.0250000), wk =   0.0030000
        k(  167) = (  -0.1250000  -0.7750000  -0.0750000), wk =   0.0030000
        k(  168) = (  -0.1750000  -0.7250000  -0.1250000), wk =   0.0030000
        k(  169) = (  -0.2250000  -0.6750000  -0.1750000), wk =   0.0030000
        k(  170) = (  -0.2750000  -0.6250000  -0.2250000), wk =   0.0030000
        k(  171) = (  -0.3250000  -0.5750000  -0.2750000), wk =   0.0030000
        k(  172) = (  -0.3750000  -0.5250000  -0.3250000), wk =   0.0030000
        k(  173) = (  -0.0250000  -0.7750000   0.0250000), wk =   0.0015000
        k(  174) = (  -0.0750000  -0.7250000  -0.0250000), wk =   0.0030000
        k(  175) = (  -0.1250000  -0.6750000  -0.0750000), wk =   0.0030000
        k(  176) = (  -0.1750000  -0.6250000  -0.1250000), wk =   0.0030000
        k(  177) = (  -0.2250000  -0.5750000  -0.1750000), wk =   0.0030000
        k(  178) = (  -0.2750000  -0.5250000  -0.2250000), wk =   0.0030000
        k(  179) = (  -0.3250000  -0.4750000  -0.2750000), wk =   0.0030000
        k(  180) = (  -0.0250000  -0.6750000   0.0250000), wk =   0.0015000
        k(  181) = (  -0.0750000  -0.6250000  -0.0250000), wk =   0.0030000
        k(  182) = (  -0.1250000  -0.5750000  -0.0750000), wk =   0.0030000
        k(  183) = (  -0.1750000  -0.5250000  -0.1250000), wk =   0.0030000
        k(  184) = (  -0.2250000  -0.4750000  -0.1750000), wk =   0.0030000
        k(  185) = (  -0.2750000  -0.4250000  -0.2250000), wk =   0.0030000
        k(  186) = (  -0.0250000  -0.5750000   0.0250000), wk =   0.0015000
        k(  187) = (  -0.0750000  -0.5250000  -0.0250000), wk =   0.0030000
        k(  188) = (  -0.1250000  -0.4750000  -0.0750000), wk =   0.0030000
        k(  189) = (  -0.1750000  -0.4250000  -0.1250000), wk =   0.0030000
        k(  190) = (  -0.2250000  -0.3750000  -0.1750000), wk =   0.0030000
        k(  191) = (  -0.0250000  -0.4750000   0.0250000), wk =   0.0015000
        k(  192) = (  -0.0750000  -0.4250000  -0.0250000), wk =   0.0030000
        k(  193) = (  -0.1250000  -0.3750000  -0.0750000), wk =   0.0030000
        k(  194) = (  -0.1750000  -0.3250000  -0.1250000), wk =   0.0030000
        k(  195) = (  -0.0250000  -0.3750000   0.0250000), wk =   0.0015000
        k(  196) = (  -0.0750000  -0.3250000  -0.0250000), wk =   0.0030000
        k(  197) = (  -0.1250000  -0.2750000  -0.0750000), wk =   0.0030000
        k(  198) = (  -0.0250000  -0.2750000   0.0250000), wk =   0.0015000
        k(  199) = (  -0.0750000  -0.2250000  -0.0250000), wk =   0.0030000
        k(  200) = (  -0.0250000  -0.1750000   0.0250000), wk =   0.0015000
        k(  201) = (  -0.0750000   0.0750000   0.0750000), wk =   0.0005000
        k(  202) = (  -0.1250000   0.1250000   0.0250000), wk =   0.0015000
        k(  203) = (  -0.1750000   0.1750000  -0.0250000), wk =   0.0015000
        k(  204) = (  -0.2250000   0.2250000  -0.0750000), wk =   0.0015000
        k(  205) = (  -0.2750000   0.2750000  -0.1250000), wk =   0.0015000
        k(  206) = (  -0.3250000   0.3250000  -0.1750000), wk =   0.0015000
        k(  207) = (  -0.3750000   0.3750000  -0.2250000), wk =   0.0015000
        k(  208) = (  -0.4250000   0.4250000  -0.2750000), wk =   0.0015000
        k(  209) = (  -0.4750000   0.4750000  -0.3250000), wk =   0.0015000
        k(  210) = (   0.4750000  -0.4750000   0.6250000), wk =   0.0015000
        k(  211) = (   0.4250000  -0.4250000   0.5750000), wk =   0.0015000
        k(  212) = (   0.3750000  -0.3750000   0.5250000), wk =   0.0015000
        k(  213) = (   0.3250000  -0.3250000   0.4750000), wk =   0.0015000
        k(  214) = (   0.2750000  -0.2750000   0.4250000), wk =   0.0015000
        k(  215) = (   0.2250000  -0.2250000   0.3750000), wk =   0.0015000
        k(  216) = (   0.1750000  -0.1750000   0.3250000), wk =   0.0015000
        k(  217) = (   0.1250000  -0.1250000   0.2750000), wk =   0.0015000
        k(  218) = (   0.0750000  -0.0750000   0.2250000), wk =   0.0015000
        k(  219) = (  -0.0750000   0.1750000   0.0750000), wk =   0.0015000
        k(  220) = (  -0.1250000   0.2250000   0.0250000), wk =   0.0030000
        k(  221) = (  -0.1750000   0.2750000  -0.0250000), wk =   0.0030000
        k(  222) = (  -0.2250000   0.3250000  -0.0750000), wk =   0.0030000
        k(  223) = (  -0.2750000   0.3750000  -0.1250000), wk =   0.0030000
        k(  224) = (  -0.3250000   0.4250000  -0.1750000), wk =   0.0030000
        k(  225) = (  -0.3750000   0.4750000  -0.2250000), wk =   0.0030000
        k(  226) = (  -0.4250000   0.5250000  -0.2750000), wk =   0.0030000
        k(  227) = (   0.5250000  -0.4250000   0.6750000), wk =   0.0030000
        k(  228) = (   0.4750000  -0.3750000   0.6250000), wk =   0.0030000
        k(  229) = (   0.4250000  -0.3250000   0.5750000), wk =   0.0030000
        k(  230) = (   0.3750000  -0.2750000   0.5250000), wk =   0.0030000
        k(  231) = (   0.3250000  -0.2250000   0.4750000), wk =   0.0030000
        k(  232) = (   0.2750000  -0.1750000   0.4250000), wk =   0.0030000
        k(  233) = (   0.2250000  -0.1250000   0.3750000), wk =   0.0030000
        k(  234) = (   0.1750000  -0.0750000   0.3250000), wk =   0.0030000
        k(  235) = (   0.1250000  -0.0250000   0.2750000), wk =   0.0030000
        k(  236) = (  -0.0750000   0.2750000   0.0750000), wk =   0.0015000
        k(  237) = (  -0.1250000   0.3250000   0.0250000), wk =   0.0030000
        k(  238) = (  -0.1750000   0.3750000  -0.0250000), wk =   0.0030000
        k(  239) = (  -0.2250000   0.4250000  -0.0750000), wk =   0.0030000
        k(  240) = (  -0.2750000   0.4750000  -0.1250000), wk =   0.0030000
        k(  241) = (  -0.3250000   0.5250000  -0.1750000), wk =   0.0030000
        k(  242) = (  -0.3750000   0.5750000  -0.2250000), wk =   0.0030000
        k(  243) = (   0.5750000  -0.3750000   0.7250000), wk =   0.0030000
        k(  244) = (   0.5250000  -0.3250000   0.6750000), wk =   0.0030000
        k(  245) = (   0.4750000  -0.2750000   0.6250000), wk =   0.0030000
        k(  246) = (   0.4250000  -0.2250000   0.5750000), wk =   0.0030000
        k(  247) = (   0.3750000  -0.1750000   0.5250000), wk =   0.0030000
        k(  248) = (   0.3250000  -0.1250000   0.4750000), wk =   0.0030000
        k(  249) = (   0.2750000  -0.0750000   0.4250000), wk =   0.0030000
        k(  250) = (   0.2250000  -0.0250000   0.3750000), wk =   0.0030000
        k(  251) = (   0.1750000   0.0250000   0.3250000), wk =   0.0030000
        k(  252) = (  -0.0750000   0.3750000   0.0750000), wk =   0.0015000
        k(  253) = (  -0.1250000   0.4250000   0.0250000), wk =   0.0030000
        k(  254) = (  -0.1750000   0.4750000  -0.0250000), wk =   0.0030000
        k(  255) = (  -0.2250000   0.5250000  -0.0750000), wk =   0.0030000
        k(  256) = (  -0.2750000   0.5750000  -0.1250000), wk =   0.0030000
        k(  257) = (  -0.3250000   0.6250000  -0.1750000), wk =   0.0030000
        k(  258) = (   0.6250000  -0.3250000   0.7750000), wk =   0.0030000
        k(  259) = (   0.5750000  -0.2750000   0.7250000), wk =   0.0030000
        k(  260) = (   0.5250000  -0.2250000   0.6750000), wk =   0.0030000
        k(  261) = (   0.4750000  -0.1750000   0.6250000), wk =   0.0030000
        k(  262) = (   0.4250000  -0.1250000   0.5750000), wk =   0.0030000
        k(  263) = (   0.3750000  -0.0750000   0.5250000), wk =   0.0030000
        k(  264) = (   0.3250000  -0.0250000   0.4750000), wk =   0.0030000
        k(  265) = (   0.2750000   0.0250000   0.4250000), wk =   0.0030000
        k(  266) = (   0.2250000   0.0750000   0.3750000), wk =   0.0030000
        k(  267) = (  -0.0750000   0.4750000   0.0750000), wk =   0.0015000
        k(  268) = (  -0.1250000   0.5250000   0.0250000), wk =   0.0030000
        k(  269) = (  -0.1750000   0.5750000  -0.0250000), wk =   0.0030000
        k(  270) = (  -0.2250000   0.6250000  -0.0750000), wk =   0.0030000
        k(  271) = (  -0.2750000   0.6750000  -0.1250000), wk =   0.0030000
        k(  272) = (   0.6750000  -0.2750000   0.8250000), wk =   0.0030000
        k(  273) = (   0.6250000  -0.2250000   0.7750000), wk =   0.0030000
        k(  274) = (   0.5750000  -0.1750000   0.7250000), wk =   0.0030000
        k(  275) = (   0.5250000  -0.1250000   0.6750000), wk =   0.0030000
        k(  276) = (   0.4750000  -0.0750000   0.6250000), wk =   0.0030000
        k(  277) = (   0.4250000  -0.0250000   0.5750000), wk =   0.0030000
        k(  278) = (   0.3750000   0.0250000   0.5250000), wk =   0.0030000
        k(  279) = (   0.3250000   0.0750000   0.4750000), wk =   0.0030000
        k(  280) = (   0.2750000   0.1250000   0.4250000), wk =   0.0030000
        k(  281) = (  -0.0750000   0.5750000   0.0750000), wk =   0.0015000
        k(  282) = (  -0.1250000   0.6250000   0.0250000), wk =   0.0030000
        k(  283) = (  -0.1750000   0.6750000  -0.0250000), wk =   0.0030000
        k(  284) = (  -0.2250000   0.7250000  -0.0750000), wk =   0.0030000
        k(  285) = (   0.7250000  -0.2250000   0.8750000), wk =   0.0030000
        k(  286) = (   0.6750000  -0.1750000   0.8250000), wk =   0.0030000
        k(  287) = (   0.6250000  -0.1250000   0.7750000), wk =   0.0030000
        k(  288) = (   0.5750000  -0.0750000   0.7250000), wk =   0.0030000
        k(  289) = (   0.5250000  -0.0250000   0.6750000), wk =   0.0030000
        k(  290) = (   0.4750000   0.0250000   0.6250000), wk =   0.0030000
        k(  291) = (   0.4250000   0.0750000   0.5750000), wk =   0.0030000
        k(  292) = (   0.3750000   0.1250000   0.5250000), wk =   0.0030000
        k(  293) = (   0.3250000   0.1750000   0.4750000), wk =   0.0030000
        k(  294) = (  -0.0750000   0.6750000   0.0750000), wk =   0.0015000
        k(  295) = (  -0.1250000   0.7250000   0.0250000), wk =   0.0030000
        k(  296) = (  -0.1750000   0.7750000  -0.0250000), wk =   0.0030000
        k(  297) = (   0.7750000  -0.1750000   0.9250000), wk =   0.0030000
        k(  298) = (   0.7250000  -0.1250000   0.8750000), wk =   0.0030000
        k(  299) = (   0.6750000  -0.0750000   0.8250000), wk =   0.0030000
        k(  300) = (   0.6250000  -0.0250000   0.7750000), wk =   0.0030000
        k(  301) = (   0.5750000   0.0250000   0.7250000), wk =   0.0030000
        k(  302) = (   0.5250000   0.0750000   0.6750000), wk =   0.0030000
        k(  303) = (   0.4750000   0.1250000   0.6250000), wk =   0.0030000
        k(  304) = (   0.4250000   0.1750000   0.5750000), wk =   0.0030000
        k(  305) = (   0.3750000   0.2250000   0.5250000), wk =   0.0030000
        k(  306) = (  -0.0750000   0.7750000   0.0750000), wk =   0.0015000
        k(  307) = (  -0.1250000   0.8250000   0.0250000), wk =   0.0030000
        k(  308) = (   0.8250000  -0.1250000   0.9750000), wk =   0.0030000
        k(  309) = (   0.7750000  -0.0750000   0.9250000), wk =   0.0030000
        k(  310) = (   0.7250000  -0.0250000   0.8750000), wk =   0.0030000
        k(  311) = (   0.6750000   0.0250000   0.8250000), wk =   0.0030000
        k(  312) = (   0.6250000   0.0750000   0.7750000), wk =   0.0030000
        k(  313) = (   0.5750000   0.1250000   0.7250000), wk =   0.0030000
        k(  314) = (   0.5250000   0.1750000   0.6750000), wk =   0.0030000
        k(  315) = (   0.4750000   0.2250000   0.6250000), wk =   0.0030000
        k(  316) = (   0.4250000   0.2750000   0.5750000), wk =   0.0030000
        k(  317) = (  -0.0750000   0.8750000   0.0750000), wk =   0.0015000
        k(  318) = (   0.8750000  -0.0750000   1.0250000), wk =   0.0030000
        k(  319) = (   0.8250000  -0.0250000   0.9750000), wk =   0.0030000
        k(  320) = (   0.7750000   0.0250000   0.9250000), wk =   0.0030000
        k(  321) = (   0.7250000   0.0750000   0.8750000), wk =   0.0030000
        k(  322) = (   0.6750000   0.1250000   0.8250000), wk =   0.0030000
        k(  323) = (   0.6250000   0.1750000   0.7750000), wk =   0.0030000
        k(  324) = (   0.5750000   0.2250000   0.7250000), wk =   0.0030000
        k(  325) = (   0.5250000   0.2750000   0.6750000), wk =   0.0030000
        k(  326) = (   0.4750000   0.3250000   0.6250000), wk =   0.0030000
        k(  327) = (  -0.0750000  -1.0250000   0.0750000), wk =   0.0015000
        k(  328) = (  -0.1250000  -0.9750000   0.0250000), wk =   0.0030000
        k(  329) = (  -0.1750000  -0.9250000  -0.0250000), wk =   0.0030000
        k(  330) = (  -0.2250000  -0.8750000  -0.0750000), wk =   0.0030000
        k(  331) = (  -0.2750000  -0.8250000  -0.1250000), wk =   0.0030000
        k(  332) = (  -0.3250000  -0.7750000  -0.1750000), wk =   0.0030000
        k(  333) = (  -0.3750000  -0.7250000  -0.2250000), wk =   0.0030000
        k(  334) = (  -0.4250000  -0.6750000  -0.2750000), wk =   0.0030000
        k(  335) = (  -0.0750000  -0.9250000   0.0750000), wk =   0.0015000
        k(  336) = (  -0.1250000  -0.8750000   0.0250000), wk =   0.0030000
        k(  337) = (  -0.1750000  -0.8250000  -0.0250000), wk =   0.0030000
        k(  338) = (  -0.2250000  -0.7750000  -0.0750000), wk =   0.0030000
        k(  339) = (  -0.2750000  -0.7250000  -0.1250000), wk =   0.0030000
        k(  340) = (  -0.3250000  -0.6750000  -0.1750000), wk =   0.0030000
        k(  341) = (  -0.3750000  -0.6250000  -0.2250000), wk =   0.0030000
        k(  342) = (  -0.0750000  -0.8250000   0.0750000), wk =   0.0015000
        k(  343) = (  -0.1250000  -0.7750000   0.0250000), wk =   0.0030000
        k(  344) = (  -0.1750000  -0.7250000  -0.0250000), wk =   0.0030000
        k(  345) = (  -0.2250000  -0.6750000  -0.0750000), wk =   0.0030000
        k(  346) = (  -0.2750000  -0.6250000  -0.1250000), wk =   0.0030000
        k(  347) = (  -0.3250000  -0.5750000  -0.1750000), wk =   0.0030000
        k(  348) = (  -0.0750000  -0.7250000   0.0750000), wk =   0.0015000
        k(  349) = (  -0.1250000  -0.6750000   0.0250000), wk =   0.0030000
        k(  350) = (  -0.1750000  -0.6250000  -0.0250000), wk =   0.0030000
        k(  351) = (  -0.2250000  -0.5750000  -0.0750000), wk =   0.0030000
        k(  352) = (  -0.2750000  -0.5250000  -0.1250000), wk =   0.0030000
        k(  353) = (  -0.0750000  -0.6250000   0.0750000), wk =   0.0015000
        k(  354) = (  -0.1250000  -0.5750000   0.0250000), wk =   0.0030000
        k(  355) = (  -0.1750000  -0.5250000  -0.0250000), wk =   0.0030000
        k(  356) = (  -0.2250000  -0.4750000  -0.0750000), wk =   0.0030000
        k(  357) = (  -0.0750000  -0.5250000   0.0750000), wk =   0.0015000
        k(  358) = (  -0.1250000  -0.4750000   0.0250000), wk =   0.0030000
        k(  359) = (  -0.1750000  -0.4250000  -0.0250000), wk =   0.0030000
        k(  360) = (  -0.0750000  -0.4250000   0.0750000), wk =   0.0015000
        k(  361) = (  -0.1250000  -0.3750000   0.0250000), wk =   0.0030000
        k(  362) = (  -0.0750000  -0.3250000   0.0750000), wk =   0.0015000
        k(  363) = (  -0.1250000   0.1250000   0.1250000), wk =   0.0005000
        k(  364) = (  -0.1750000   0.1750000   0.0750000), wk =   0.0015000
        k(  365) = (  -0.2250000   0.2250000   0.0250000), wk =   0.0015000
        k(  366) = (  -0.2750000   0.2750000  -0.0250000), wk =   0.0015000
        k(  367) = (  -0.3250000   0.3250000  -0.0750000), wk =   0.0015000
        k(  368) = (  -0.3750000   0.3750000  -0.1250000), wk =   0.0015000
        k(  369) = (  -0.4250000   0.4250000  -0.1750000), wk =   0.0015000
        k(  370) = (  -0.4750000   0.4750000  -0.2250000), wk =   0.0015000
        k(  371) = (   0.4750000  -0.4750000   0.7250000), wk =   0.0015000
        k(  372) = (   0.4250000  -0.4250000   0.6750000), wk =   0.0015000
        k(  373) = (   0.3750000  -0.3750000   0.6250000), wk =   0.0015000
        k(  374) = (   0.3250000  -0.3250000   0.5750000), wk =   0.0015000
        k(  375) = (   0.2750000  -0.2750000   0.5250000), wk =   0.0015000
        k(  376) = (   0.2250000  -0.2250000   0.4750000), wk =   0.0015000
        k(  377) = (   0.1750000  -0.1750000   0.4250000), wk =   0.0015000
        k(  378) = (   0.1250000  -0.1250000   0.3750000), wk =   0.0015000
        k(  379) = (  -0.1250000   0.2250000   0.1250000), wk =   0.0015000
        k(  380) = (  -0.1750000   0.2750000   0.0750000), wk =   0.0030000
        k(  381) = (  -0.2250000   0.3250000   0.0250000), wk =   0.0030000
        k(  382) = (  -0.2750000   0.3750000  -0.0250000), wk =   0.0030000
        k(  383) = (  -0.3250000   0.4250000  -0.0750000), wk =   0.0030000
        k(  384) = (  -0.3750000   0.4750000  -0.1250000), wk =   0.0030000
        k(  385) = (  -0.4250000   0.5250000  -0.1750000), wk =   0.0030000
        k(  386) = (   0.5250000  -0.4250000   0.7750000), wk =   0.0030000
        k(  387) = (   0.4750000  -0.3750000   0.7250000), wk =   0.0030000
        k(  388) = (   0.4250000  -0.3250000   0.6750000), wk =   0.0030000
        k(  389) = (   0.3750000  -0.2750000   0.6250000), wk =   0.0030000
        k(  390) = (   0.3250000  -0.2250000   0.5750000), wk =   0.0030000
        k(  391) = (   0.2750000  -0.1750000   0.5250000), wk =   0.0030000
        k(  392) = (   0.2250000  -0.1250000   0.4750000), wk =   0.0030000
        k(  393) = (   0.1750000  -0.0750000   0.4250000), wk =   0.0030000
        k(  394) = (  -0.1250000   0.3250000   0.1250000), wk =   0.0015000
        k(  395) = (  -0.1750000   0.3750000   0.0750000), wk =   0.0030000
        k(  396) = (  -0.2250000   0.4250000   0.0250000), wk =   0.0030000
        k(  397) = (  -0.2750000   0.4750000  -0.0250000), wk =   0.0030000
        k(  398) = (  -0.3250000   0.5250000  -0.0750000), wk =   0.0030000
        k(  399) = (  -0.3750000   0.5750000  -0.1250000), wk =   0.0030000
        k(  400) = (   0.5750000  -0.3750000   0.8250000), wk =   0.0030000
        k(  401) = (   0.5250000  -0.3250000   0.7750000), wk =   0.0030000
        k(  402) = (   0.4750000  -0.2750000   0.7250000), wk =   0.0030000
        k(  403) = (   0.4250000  -0.2250000   0.6750000), wk =   0.0030000
        k(  404) = (   0.3750000  -0.1750000   0.6250000), wk =   0.0030000
        k(  405) = (   0.3250000  -0.1250000   0.5750000), wk =   0.0030000
        k(  406) = (   0.2750000  -0.0750000   0.5250000), wk =   0.0030000
        k(  407) = (   0.2250000  -0.0250000   0.4750000), wk =   0.0030000
        k(  408) = (  -0.1250000   0.4250000   0.1250000), wk =   0.0015000
        k(  409) = (  -0.1750000   0.4750000   0.0750000), wk =   0.0030000
        k(  410) = (  -0.2250000   0.5250000   0.0250000), wk =   0.0030000
        k(  411) = (  -0.2750000   0.5750000  -0.0250000), wk =   0.0030000
        k(  412) = (  -0.3250000   0.6250000  -0.0750000), wk =   0.0030000
        k(  413) = (   0.6250000  -0.3250000   0.8750000), wk =   0.0030000
        k(  414) = (   0.5750000  -0.2750000   0.8250000), wk =   0.0030000
        k(  415) = (   0.5250000  -0.2250000   0.7750000), wk =   0.0030000
        k(  416) = (   0.4750000  -0.1750000   0.7250000), wk =   0.0030000
        k(  417) = (   0.4250000  -0.1250000   0.6750000), wk =   0.0030000
        k(  418) = (   0.3750000  -0.0750000   0.6250000), wk =   0.0030000
        k(  419) = (   0.3250000  -0.0250000   0.5750000), wk =   0.0030000
        k(  420) = (   0.2750000   0.0250000   0.5250000), wk =   0.0030000
        k(  421) = (  -0.1250000   0.5250000   0.1250000), wk =   0.0015000
        k(  422) = (  -0.1750000   0.5750000   0.0750000), wk =   0.0030000
        k(  423) = (  -0.2250000   0.6250000   0.0250000), wk =   0.0030000
        k(  424) = (  -0.2750000   0.6750000  -0.0250000), wk =   0.0030000
        k(  425) = (   0.6750000  -0.2750000   0.9250000), wk =   0.0030000
        k(  426) = (   0.6250000  -0.2250000   0.8750000), wk =   0.0030000
        k(  427) = (   0.5750000  -0.1750000   0.8250000), wk =   0.0030000
        k(  428) = (   0.5250000  -0.1250000   0.7750000), wk =   0.0030000
        k(  429) = (   0.4750000  -0.0750000   0.7250000), wk =   0.0030000
        k(  430) = (   0.4250000  -0.0250000   0.6750000), wk =   0.0030000
        k(  431) = (   0.3750000   0.0250000   0.6250000), wk =   0.0030000
        k(  432) = (   0.3250000   0.0750000   0.5750000), wk =   0.0030000
        k(  433) = (  -0.1250000   0.6250000   0.1250000), wk =   0.0015000
        k(  434) = (  -0.1750000   0.6750000   0.0750000), wk =   0.0030000
        k(  435) = (  -0.2250000   0.7250000   0.0250000), wk =   0.0030000
        k(  436) = (   0.7250000  -0.2250000   0.9750000), wk =   0.0030000
        k(  437) = (   0.6750000  -0.1750000   0.9250000), wk =   0.0030000
        k(  438) = (   0.6250000  -0.1250000   0.8750000), wk =   0.0030000
        k(  439) = (   0.5750000  -0.0750000   0.8250000), wk =   0.0030000
        k(  440) = (   0.5250000  -0.0250000   0.7750000), wk =   0.0030000
        k(  441) = (   0.4750000   0.0250000   0.7250000), wk =   0.0030000
        k(  442) = (   0.4250000   0.0750000   0.6750000), wk =   0.0030000
        k(  443) = (   0.3750000   0.1250000   0.6250000), wk =   0.0030000
        k(  444) = (  -0.1250000   0.7250000   0.1250000), wk =   0.0015000
        k(  445) = (  -0.1750000   0.7750000   0.0750000), wk =   0.0030000
        k(  446) = (   0.7750000  -0.1750000   1.0250000), wk =   0.0030000
        k(  447) = (   0.7250000  -0.1250000   0.9750000), wk =   0.0030000
        k(  448) = (   0.6750000  -0.0750000   0.9250000), wk =   0.0030000
        k(  449) = (   0.6250000  -0.0250000   0.8750000), wk =   0.0030000
        k(  450) = (   0.5750000   0.0250000   0.8250000), wk =   0.0030000
        k(  451) = (   0.5250000   0.0750000   0.7750000), wk =   0.0030000
        k(  452) = (   0.4750000   0.1250000   0.7250000), wk =   0.0030000
        k(  453) = (   0.4250000   0.1750000   0.6750000), wk =   0.0030000
        k(  454) = (  -0.1250000   0.8250000   0.1250000), wk =   0.0015000
        k(  455) = (   0.8250000  -0.1250000   1.0750000), wk =   0.0030000
        k(  456) = (   0.7750000  -0.0750000   1.0250000), wk =   0.0030000
        k(  457) = (   0.7250000  -0.0250000   0.9750000), wk =   0.0030000
        k(  458) = (   0.6750000   0.0250000   0.9250000), wk =   0.0030000
        k(  459) = (   0.6250000   0.0750000   0.8750000), wk =   0.0030000
        k(  460) = (   0.5750000   0.1250000   0.8250000), wk =   0.0030000
        k(  461) = (   0.5250000   0.1750000   0.7750000), wk =   0.0030000
        k(  462) = (   0.4750000   0.2250000   0.7250000), wk =   0.0030000
        k(  463) = (  -0.1250000  -1.0750000   0.1250000), wk =   0.0015000
        k(  464) = (  -0.1750000  -1.0250000   0.0750000), wk =   0.0030000
        k(  465) = (  -0.2250000  -0.9750000   0.0250000), wk =   0.0030000
        k(  466) = (  -0.2750000  -0.9250000  -0.0250000), wk =   0.0030000
        k(  467) = (  -0.3250000  -0.8750000  -0.0750000), wk =   0.0030000
        k(  468) = (  -0.3750000  -0.8250000  -0.1250000), wk =   0.0030000
        k(  469) = (  -0.4250000  -0.7750000  -0.1750000), wk =   0.0030000
        k(  470) = (  -0.1250000  -0.9750000   0.1250000), wk =   0.0015000
        k(  471) = (  -0.1750000  -0.9250000   0.0750000), wk =   0.0030000
        k(  472) = (  -0.2250000  -0.8750000   0.0250000), wk =   0.0030000
        k(  473) = (  -0.2750000  -0.8250000  -0.0250000), wk =   0.0030000
        k(  474) = (  -0.3250000  -0.7750000  -0.0750000), wk =   0.0030000
        k(  475) = (  -0.3750000  -0.7250000  -0.1250000), wk =   0.0030000
        k(  476) = (  -0.1250000  -0.8750000   0.1250000), wk =   0.0015000
        k(  477) = (  -0.1750000  -0.8250000   0.0750000), wk =   0.0030000
        k(  478) = (  -0.2250000  -0.7750000   0.0250000), wk =   0.0030000
        k(  479) = (  -0.2750000  -0.7250000  -0.0250000), wk =   0.0030000
        k(  480) = (  -0.3250000  -0.6750000  -0.0750000), wk =   0.0030000
        k(  481) = (  -0.1250000  -0.7750000   0.1250000), wk =   0.0015000
        k(  482) = (  -0.1750000  -0.7250000   0.0750000), wk =   0.0030000
        k(  483) = (  -0.2250000  -0.6750000   0.0250000), wk =   0.0030000
        k(  484) = (  -0.2750000  -0.6250000  -0.0250000), wk =   0.0030000
        k(  485) = (  -0.1250000  -0.6750000   0.1250000), wk =   0.0015000
        k(  486) = (  -0.1750000  -0.6250000   0.0750000), wk =   0.0030000
        k(  487) = (  -0.2250000  -0.5750000   0.0250000), wk =   0.0030000
        k(  488) = (  -0.1250000  -0.5750000   0.1250000), wk =   0.0015000
        k(  489) = (  -0.1750000  -0.5250000   0.0750000), wk =   0.0030000
        k(  490) = (  -0.1250000  -0.4750000   0.1250000), wk =   0.0015000
        k(  491) = (  -0.1750000   0.1750000   0.1750000), wk =   0.0005000
        k(  492) = (  -0.2250000   0.2250000   0.1250000), wk =   0.0015000
        k(  493) = (  -0.2750000   0.2750000   0.0750000), wk =   0.0015000
        k(  494) = (  -0.3250000   0.3250000   0.0250000), wk =   0.0015000
        k(  495) = (  -0.3750000   0.3750000  -0.0250000), wk =   0.0015000
        k(  496) = (  -0.4250000   0.4250000  -0.0750000), wk =   0.0015000
        k(  497) = (  -0.4750000   0.4750000  -0.1250000), wk =   0.0015000
        k(  498) = (   0.4750000  -0.4750000   0.8250000), wk =   0.0015000
        k(  499) = (   0.4250000  -0.4250000   0.7750000), wk =   0.0015000
        k(  500) = (   0.3750000  -0.3750000   0.7250000), wk =   0.0015000
        k(  501) = (   0.3250000  -0.3250000   0.6750000), wk =   0.0015000
        k(  502) = (   0.2750000  -0.2750000   0.6250000), wk =   0.0015000
        k(  503) = (   0.2250000  -0.2250000   0.5750000), wk =   0.0015000
        k(  504) = (   0.1750000  -0.1750000   0.5250000), wk =   0.0015000
        k(  505) = (  -0.1750000   0.2750000   0.1750000), wk =   0.0015000
        k(  506) = (  -0.2250000   0.3250000   0.1250000), wk =   0.0030000
        k(  507) = (  -0.2750000   0.3750000   0.0750000), wk =   0.0030000
        k(  508) = (  -0.3250000   0.4250000   0.0250000), wk =   0.0030000
        k(  509) = (  -0.3750000   0.4750000  -0.0250000), wk =   0.0030000
        k(  510) = (  -0.4250000   0.5250000  -0.0750000), wk =   0.0030000
        k(  511) = (   0.5250000  -0.4250000   0.8750000), wk =   0.0030000
        k(  512) = (   0.4750000  -0.3750000   0.8250000), wk =   0.0030000
        k(  513) = (   0.4250000  -0.3250000   0.7750000), wk =   0.0030000
        k(  514) = (   0.3750000  -0.2750000   0.7250000), wk =   0.0030000
        k(  515) = (   0.3250000  -0.2250000   0.6750000), wk =   0.0030000
        k(  516) = (   0.2750000  -0.1750000   0.6250000), wk =   0.0030000
        k(  517) = (   0.2250000  -0.1250000   0.5750000), wk =   0.0030000
        k(  518) = (  -0.1750000   0.3750000   0.1750000), wk =   0.0015000
        k(  519) = (  -0.2250000   0.4250000   0.1250000), wk =   0.0030000
        k(  520) = (  -0.2750000   0.4750000   0.0750000), wk =   0.0030000
        k(  521) = (  -0.3250000   0.5250000   0.0250000), wk =   0.0030000
        k(  522) = (  -0.3750000   0.5750000  -0.0250000), wk =   0.0030000
        k(  523) = (   0.5750000  -0.3750000   0.9250000), wk =   0.0030000
        k(  524) = (   0.5250000  -0.3250000   0.8750000), wk =   0.0030000
        k(  525) = (   0.4750000  -0.2750000   0.8250000), wk =   0.0030000
        k(  526) = (   0.4250000  -0.2250000   0.7750000), wk =   0.0030000
        k(  527) = (   0.3750000  -0.1750000   0.7250000), wk =   0.0030000
        k(  528) = (   0.3250000  -0.1250000   0.6750000), wk =   0.0030000
        k(  529) = (   0.2750000  -0.0750000   0.6250000), wk =   0.0030000
        k(  530) = (  -0.1750000   0.4750000   0.1750000), wk =   0.0015000
        k(  531) = (  -0.2250000   0.5250000   0.1250000), wk =   0.0030000
        k(  532) = (  -0.2750000   0.5750000   0.0750000), wk =   0.0030000
        k(  533) = (  -0.3250000   0.6250000   0.0250000), wk =   0.0030000
        k(  534) = (   0.6250000  -0.3250000   0.9750000), wk =   0.0030000
        k(  535) = (   0.5750000  -0.2750000   0.9250000), wk =   0.0030000
        k(  536) = (   0.5250000  -0.2250000   0.8750000), wk =   0.0030000
        k(  537) = (   0.4750000  -0.1750000   0.8250000), wk =   0.0030000
        k(  538) = (   0.4250000  -0.1250000   0.7750000), wk =   0.0030000
        k(  539) = (   0.3750000  -0.0750000   0.7250000), wk =   0.0030000
        k(  540) = (   0.3250000  -0.0250000   0.6750000), wk =   0.0030000
        k(  541) = (  -0.1750000   0.5750000   0.1750000), wk =   0.0015000
        k(  542) = (  -0.2250000   0.6250000   0.1250000), wk =   0.0030000
        k(  543) = (  -0.2750000   0.6750000   0.0750000), wk =   0.0030000
        k(  544) = (   0.6750000  -0.2750000   1.0250000), wk =   0.0030000
        k(  545) = (   0.6250000  -0.2250000   0.9750000), wk =   0.0030000
        k(  546) = (   0.5750000  -0.1750000   0.9250000), wk =   0.0030000
        k(  547) = (   0.5250000  -0.1250000   0.8750000), wk =   0.0030000
        k(  548) = (   0.4750000  -0.0750000   0.8250000), wk =   0.0030000
        k(  549) = (   0.4250000  -0.0250000   0.7750000), wk =   0.0030000
        k(  550) = (   0.3750000   0.0250000   0.7250000), wk =   0.0030000
        k(  551) = (  -0.1750000   0.6750000   0.1750000), wk =   0.0015000
        k(  552) = (  -0.2250000   0.7250000   0.1250000), wk =   0.0030000
        k(  553) = (   0.7250000  -0.2250000   1.0750000), wk =   0.0030000
        k(  554) = (   0.6750000  -0.1750000   1.0250000), wk =   0.0030000
        k(  555) = (   0.6250000  -0.1250000   0.9750000), wk =   0.0030000
        k(  556) = (   0.5750000  -0.0750000   0.9250000), wk =   0.0030000
        k(  557) = (   0.5250000  -0.0250000   0.8750000), wk =   0.0030000
        k(  558) = (   0.4750000   0.0250000   0.8250000), wk =   0.0030000
        k(  559) = (   0.4250000   0.0750000   0.7750000), wk =   0.0030000
        k(  560) = (  -0.1750000   0.7750000   0.1750000), wk =   0.0015000
        k(  561) = (   0.7750000  -0.1750000   1.1250000), wk =   0.0030000
        k(  562) = (   0.7250000  -0.1250000   1.0750000), wk =   0.0030000
        k(  563) = (   0.6750000  -0.0750000   1.0250000), wk =   0.0030000
        k(  564) = (   0.6250000  -0.0250000   0.9750000), wk =   0.0030000
        k(  565) = (   0.5750000   0.0250000   0.9250000), wk =   0.0030000
        k(  566) = (   0.5250000   0.0750000   0.8750000), wk =   0.0030000
        k(  567) = (   0.4750000   0.1250000   0.8250000), wk =   0.0030000
        k(  568) = (  -0.1750000  -1.1250000   0.1750000), wk =   0.0015000
        k(  569) = (  -0.2250000  -1.0750000   0.1250000), wk =   0.0030000
        k(  570) = (  -0.2750000  -1.0250000   0.0750000), wk =   0.0030000
        k(  571) = (  -0.3250000  -0.9750000   0.0250000), wk =   0.0030000
        k(  572) = (  -0.3750000  -0.9250000  -0.0250000), wk =   0.0030000
        k(  573) = (  -0.4250000  -0.8750000  -0.0750000), wk =   0.0030000
        k(  574) = (  -0.1750000  -1.0250000   0.1750000), wk =   0.0015000
        k(  575) = (  -0.2250000  -0.9750000   0.1250000), wk =   0.0030000
        k(  576) = (  -0.2750000  -0.9250000   0.0750000), wk =   0.0030000
        k(  577) = (  -0.3250000  -0.8750000   0.0250000), wk =   0.0030000
        k(  578) = (  -0.3750000  -0.8250000  -0.0250000), wk =   0.0030000
        k(  579) = (  -0.1750000  -0.9250000   0.1750000), wk =   0.0015000
        k(  580) = (  -0.2250000  -0.8750000   0.1250000), wk =   0.0030000
        k(  581) = (  -0.2750000  -0.8250000   0.0750000), wk =   0.0030000
        k(  582) = (  -0.3250000  -0.7750000   0.0250000), wk =   0.0030000
        k(  583) = (  -0.1750000  -0.8250000   0.1750000), wk =   0.0015000
        k(  584) = (  -0.2250000  -0.7750000   0.1250000), wk =   0.0030000
        k(  585) = (  -0.2750000  -0.7250000   0.0750000), wk =   0.0030000
        k(  586) = (  -0.1750000  -0.7250000   0.1750000), wk =   0.0015000
        k(  587) = (  -0.2250000  -0.6750000   0.1250000), wk =   0.0030000
        k(  588) = (  -0.1750000  -0.6250000   0.1750000), wk =   0.0015000
        k(  589) = (  -0.2250000   0.2250000   0.2250000), wk =   0.0005000
        k(  590) = (  -0.2750000   0.2750000   0.1750000), wk =   0.0015000
        k(  591) = (  -0.3250000   0.3250000   0.1250000), wk =   0.0015000
        k(  592) = (  -0.3750000   0.3750000   0.0750000), wk =   0.0015000
        k(  593) = (  -0.4250000   0.4250000   0.0250000), wk =   0.0015000
        k(  594) = (  -0.4750000   0.4750000  -0.0250000), wk =   0.0015000
        k(  595) = (   0.4750000  -0.4750000   0.9250000), wk =   0.0015000
        k(  596) = (   0.4250000  -0.4250000   0.8750000), wk =   0.0015000
        k(  597) = (   0.3750000  -0.3750000   0.8250000), wk =   0.0015000
        k(  598) = (   0.3250000  -0.3250000   0.7750000), wk =   0.0015000
        k(  599) = (   0.2750000  -0.2750000   0.7250000), wk =   0.0015000
        k(  600) = (   0.2250000  -0.2250000   0.6750000), wk =   0.0015000
        k(  601) = (  -0.2250000   0.3250000   0.2250000), wk =   0.0015000
        k(  602) = (  -0.2750000   0.3750000   0.1750000), wk =   0.0030000
        k(  603) = (  -0.3250000   0.4250000   0.1250000), wk =   0.0030000
        k(  604) = (  -0.3750000   0.4750000   0.0750000), wk =   0.0030000
        k(  605) = (  -0.4250000   0.5250000   0.0250000), wk =   0.0030000
        k(  606) = (   0.5250000  -0.4250000   0.9750000), wk =   0.0030000
        k(  607) = (   0.4750000  -0.3750000   0.9250000), wk =   0.0030000
        k(  608) = (   0.4250000  -0.3250000   0.8750000), wk =   0.0030000
        k(  609) = (   0.3750000  -0.2750000   0.8250000), wk =   0.0030000
        k(  610) = (   0.3250000  -0.2250000   0.7750000), wk =   0.0030000
        k(  611) = (   0.2750000  -0.1750000   0.7250000), wk =   0.0030000
        k(  612) = (  -0.2250000   0.4250000   0.2250000), wk =   0.0015000
        k(  613) = (  -0.2750000   0.4750000   0.1750000), wk =   0.0030000
        k(  614) = (  -0.3250000   0.5250000   0.1250000), wk =   0.0030000
        k(  615) = (  -0.3750000   0.5750000   0.0750000), wk =   0.0030000
        k(  616) = (   0.5750000  -0.3750000   1.0250000), wk =   0.0030000
        k(  617) = (   0.5250000  -0.3250000   0.9750000), wk =   0.0030000
        k(  618) = (   0.4750000  -0.2750000   0.9250000), wk =   0.0030000
        k(  619) = (   0.4250000  -0.2250000   0.8750000), wk =   0.0030000
        k(  620) = (   0.3750000  -0.1750000   0.8250000), wk =   0.0030000
        k(  621) = (   0.3250000  -0.1250000   0.7750000), wk =   0.0030000
        k(  622) = (  -0.2250000   0.5250000   0.2250000), wk =   0.0015000
        k(  623) = (  -0.2750000   0.5750000   0.1750000), wk =   0.0030000
        k(  624) = (  -0.3250000   0.6250000   0.1250000), wk =   0.0030000
        k(  625) = (   0.6250000  -0.3250000   1.0750000), wk =   0.0030000
        k(  626) = (   0.5750000  -0.2750000   1.0250000), wk =   0.0030000
        k(  627) = (   0.5250000  -0.2250000   0.9750000), wk =   0.0030000
        k(  628) = (   0.4750000  -0.1750000   0.9250000), wk =   0.0030000
        k(  629) = (   0.4250000  -0.1250000   0.8750000), wk =   0.0030000
        k(  630) = (   0.3750000  -0.0750000   0.8250000), wk =   0.0030000
        k(  631) = (  -0.2250000   0.6250000   0.2250000), wk =   0.0015000
        k(  632) = (  -0.2750000   0.6750000   0.1750000), wk =   0.0030000
        k(  633) = (   0.6750000  -0.2750000   1.1250000), wk =   0.0030000
        k(  634) = (   0.6250000  -0.2250000   1.0750000), wk =   0.0030000
        k(  635) = (   0.5750000  -0.1750000   1.0250000), wk =   0.0030000
        k(  636) = (   0.5250000  -0.1250000   0.9750000), wk =   0.0030000
        k(  637) = (   0.4750000  -0.0750000   0.9250000), wk =   0.0030000
        k(  638) = (   0.4250000  -0.0250000   0.8750000), wk =   0.0030000
        k(  639) = (  -0.2250000   0.7250000   0.2250000), wk =   0.0015000
        k(  640) = (   0.7250000  -0.2250000   1.1750000), wk =   0.0030000
        k(  641) = (   0.6750000  -0.1750000   1.1250000), wk =   0.0030000
        k(  642) = (   0.6250000  -0.1250000   1.0750000), wk =   0.0030000
        k(  643) = (   0.5750000  -0.0750000   1.0250000), wk =   0.0030000
        k(  644) = (   0.5250000  -0.0250000   0.9750000), wk =   0.0030000
        k(  645) = (   0.4750000   0.0250000   0.9250000), wk =   0.0030000
        k(  646) = (  -0.2250000  -1.1750000   0.2250000), wk =   0.0015000
        k(  647) = (  -0.2750000  -1.1250000   0.1750000), wk =   0.0030000
        k(  648) = (  -0.3250000  -1.0750000   0.1250000), wk =   0.0030000
        k(  649) = (  -0.3750000  -1.0250000   0.0750000), wk =   0.0030000
        k(  650) = (  -0.4250000  -0.9750000   0.0250000), wk =   0.0030000
        k(  651) = (  -0.2250000  -1.0750000   0.2250000), wk =   0.0015000
        k(  652) = (  -0.2750000  -1.0250000   0.1750000), wk =   0.0030000
        k(  653) = (  -0.3250000  -0.9750000   0.1250000), wk =   0.0030000
        k(  654) = (  -0.3750000  -0.9250000   0.0750000), wk =   0.0030000
        k(  655) = (  -0.2250000  -0.9750000   0.2250000), wk =   0.0015000
        k(  656) = (  -0.2750000  -0.9250000   0.1750000), wk =   0.0030000
        k(  657) = (  -0.3250000  -0.8750000   0.1250000), wk =   0.0030000
        k(  658) = (  -0.2250000  -0.8750000   0.2250000), wk =   0.0015000
        k(  659) = (  -0.2750000  -0.8250000   0.1750000), wk =   0.0030000
        k(  660) = (  -0.2250000  -0.7750000   0.2250000), wk =   0.0015000
        k(  661) = (  -0.2750000   0.2750000   0.2750000), wk =   0.0005000
        k(  662) = (  -0.3250000   0.3250000   0.2250000), wk =   0.0015000
        k(  663) = (  -0.3750000   0.3750000   0.1750000), wk =   0.0015000
        k(  664) = (  -0.4250000   0.4250000   0.1250000), wk =   0.0015000
        k(  665) = (  -0.4750000   0.4750000   0.0750000), wk =   0.0015000
        k(  666) = (   0.4750000  -0.4750000   1.0250000), wk =   0.0015000
        k(  667) = (   0.4250000  -0.4250000   0.9750000), wk =   0.0015000
        k(  668) = (   0.3750000  -0.3750000   0.9250000), wk =   0.0015000
        k(  669) = (   0.3250000  -0.3250000   0.8750000), wk =   0.0015000
        k(  670) = (   0.2750000  -0.2750000   0.8250000), wk =   0.0015000
        k(  671) = (  -0.2750000   0.3750000   0.2750000), wk =   0.0015000
        k(  672) = (  -0.3250000   0.4250000   0.2250000), wk =   0.0030000
        k(  673) = (  -0.3750000   0.4750000   0.1750000), wk =   0.0030000
        k(  674) = (  -0.4250000   0.5250000   0.1250000), wk =   0.0030000
        k(  675) = (   0.5250000  -0.4250000   1.0750000), wk =   0.0030000
        k(  676) = (   0.4750000  -0.3750000   1.0250000), wk =   0.0030000
        k(  677) = (   0.4250000  -0.3250000   0.9750000), wk =   0.0030000
        k(  678) = (   0.3750000  -0.2750000   0.9250000), wk =   0.0030000
        k(  679) = (   0.3250000  -0.2250000   0.8750000), wk =   0.0030000
        k(  680) = (  -0.2750000   0.4750000   0.2750000), wk =   0.0015000
        k(  681) = (  -0.3250000   0.5250000   0.2250000), wk =   0.0030000
        k(  682) = (  -0.3750000   0.5750000   0.1750000), wk =   0.0030000
        k(  683) = (   0.5750000  -0.3750000   1.1250000), wk =   0.0030000
        k(  684) = (   0.5250000  -0.3250000   1.0750000), wk =   0.0030000
        k(  685) = (   0.4750000  -0.2750000   1.0250000), wk =   0.0030000
        k(  686) = (   0.4250000  -0.2250000   0.9750000), wk =   0.0030000
        k(  687) = (   0.3750000  -0.1750000   0.9250000), wk =   0.0030000
        k(  688) = (  -0.2750000   0.5750000   0.2750000), wk =   0.0015000
        k(  689) = (  -0.3250000   0.6250000   0.2250000), wk =   0.0030000
        k(  690) = (   0.6250000  -0.3250000   1.1750000), wk =   0.0030000
        k(  691) = (   0.5750000  -0.2750000   1.1250000), wk =   0.0030000
        k(  692) = (   0.5250000  -0.2250000   1.0750000), wk =   0.0030000
        k(  693) = (   0.4750000  -0.1750000   1.0250000), wk =   0.0030000
        k(  694) = (   0.4250000  -0.1250000   0.9750000), wk =   0.0030000
        k(  695) = (  -0.2750000   0.6750000   0.2750000), wk =   0.0015000
        k(  696) = (   0.6750000  -0.2750000   1.2250000), wk =   0.0030000
        k(  697) = (   0.6250000  -0.2250000   1.1750000), wk =   0.0030000
        k(  698) = (   0.5750000  -0.1750000   1.1250000), wk =   0.0030000
        k(  699) = (   0.5250000  -0.1250000   1.0750000), wk =   0.0030000
        k(  700) = (   0.4750000  -0.0750000   1.0250000), wk =   0.0030000
        k(  701) = (  -0.2750000  -1.2250000   0.2750000), wk =   0.0015000
        k(  702) = (  -0.3250000  -1.1750000   0.2250000), wk =   0.0030000
        k(  703) = (  -0.3750000  -1.1250000   0.1750000), wk =   0.0030000
        k(  704) = (  -0.4250000  -1.0750000   0.1250000), wk =   0.0030000
        k(  705) = (  -0.2750000  -1.1250000   0.2750000), wk =   0.0015000
        k(  706) = (  -0.3250000  -1.0750000   0.2250000), wk =   0.0030000
        k(  707) = (  -0.3750000  -1.0250000   0.1750000), wk =   0.0030000
        k(  708) = (  -0.2750000  -1.0250000   0.2750000), wk =   0.0015000
        k(  709) = (  -0.3250000  -0.9750000   0.2250000), wk =   0.0030000
        k(  710) = (  -0.2750000  -0.9250000   0.2750000), wk =   0.0015000
        k(  711) = (  -0.3250000   0.3250000   0.3250000), wk =   0.0005000
        k(  712) = (  -0.3750000   0.3750000   0.2750000), wk =   0.0015000
        k(  713) = (  -0.4250000   0.4250000   0.2250000), wk =   0.0015000
        k(  714) = (  -0.4750000   0.4750000   0.1750000), wk =   0.0015000
        k(  715) = (   0.4750000  -0.4750000   1.1250000), wk =   0.0015000
        k(  716) = (   0.4250000  -0.4250000   1.0750000), wk =   0.0015000
        k(  717) = (   0.3750000  -0.3750000   1.0250000), wk =   0.0015000
        k(  718) = (   0.3250000  -0.3250000   0.9750000), wk =   0.0015000
        k(  719) = (  -0.3250000   0.4250000   0.3250000), wk =   0.0015000
        k(  720) = (  -0.3750000   0.4750000   0.2750000), wk =   0.0030000
        k(  721) = (  -0.4250000   0.5250000   0.2250000), wk =   0.0030000
        k(  722) = (   0.5250000  -0.4250000   1.1750000), wk =   0.0030000
        k(  723) = (   0.4750000  -0.3750000   1.1250000), wk =   0.0030000
        k(  724) = (   0.4250000  -0.3250000   1.0750000), wk =   0.0030000
        k(  725) = (   0.3750000  -0.2750000   1.0250000), wk =   0.0030000
        k(  726) = (  -0.3250000   0.5250000   0.3250000), wk =   0.0015000
        k(  727) = (  -0.3750000   0.5750000   0.2750000), wk =   0.0030000
        k(  728) = (   0.5750000  -0.3750000   1.2250000), wk =   0.0030000
        k(  729) = (   0.5250000  -0.3250000   1.1750000), wk =   0.0030000
        k(  730) = (   0.4750000  -0.2750000   1.1250000), wk =   0.0030000
        k(  731) = (   0.4250000  -0.2250000   1.0750000), wk =   0.0030000
        k(  732) = (  -0.3250000   0.6250000   0.3250000), wk =   0.0015000
        k(  733) = (   0.6250000  -0.3250000   1.2750000), wk =   0.0030000
        k(  734) = (   0.5750000  -0.2750000   1.2250000), wk =   0.0030000
        k(  735) = (   0.5250000  -0.2250000   1.1750000), wk =   0.0030000
        k(  736) = (   0.4750000  -0.1750000   1.1250000), wk =   0.0030000
        k(  737) = (  -0.3250000  -1.2750000   0.3250000), wk =   0.0015000
        k(  738) = (  -0.3750000  -1.2250000   0.2750000), wk =   0.0030000
        k(  739) = (  -0.4250000  -1.1750000   0.2250000), wk =   0.0030000
        k(  740) = (  -0.3250000  -1.1750000   0.3250000), wk =   0.0015000
        k(  741) = (  -0.3750000  -1.1250000   0.2750000), wk =   0.0030000
        k(  742) = (  -0.3250000  -1.0750000   0.3250000), wk =   0.0015000
        k(  743) = (  -0.3750000   0.3750000   0.3750000), wk =   0.0005000
        k(  744) = (  -0.4250000   0.4250000   0.3250000), wk =   0.0015000
        k(  745) = (  -0.4750000   0.4750000   0.2750000), wk =   0.0015000
        k(  746) = (   0.4750000  -0.4750000   1.2250000), wk =   0.0015000
        k(  747) = (   0.4250000  -0.4250000   1.1750000), wk =   0.0015000
        k(  748) = (   0.3750000  -0.3750000   1.1250000), wk =   0.0015000
        k(  749) = (  -0.3750000   0.4750000   0.3750000), wk =   0.0015000
        k(  750) = (  -0.4250000   0.5250000   0.3250000), wk =   0.0030000
        k(  751) = (   0.5250000  -0.4250000   1.2750000), wk =   0.0030000
        k(  752) = (   0.4750000  -0.3750000   1.2250000), wk =   0.0030000
        k(  753) = (   0.4250000  -0.3250000   1.1750000), wk =   0.0030000
        k(  754) = (  -0.3750000   0.5750000   0.3750000), wk =   0.0015000
        k(  755) = (   0.5750000  -0.3750000   1.3250000), wk =   0.0030000
        k(  756) = (   0.5250000  -0.3250000   1.2750000), wk =   0.0030000
        k(  757) = (   0.4750000  -0.2750000   1.2250000), wk =   0.0030000
        k(  758) = (  -0.3750000  -1.3250000   0.3750000), wk =   0.0015000
        k(  759) = (  -0.4250000  -1.2750000   0.3250000), wk =   0.0030000
        k(  760) = (  -0.3750000  -1.2250000   0.3750000), wk =   0.0015000
        k(  761) = (  -0.4250000   0.4250000   0.4250000), wk =   0.0005000
        k(  762) = (  -0.4750000   0.4750000   0.3750000), wk =   0.0015000
        k(  763) = (   0.4750000  -0.4750000   1.3250000), wk =   0.0015000
        k(  764) = (   0.4250000  -0.4250000   1.2750000), wk =   0.0015000
        k(  765) = (  -0.4250000   0.5250000   0.4250000), wk =   0.0015000
        k(  766) = (   0.5250000  -0.4250000   1.3750000), wk =   0.0030000
        k(  767) = (   0.4750000  -0.3750000   1.3250000), wk =   0.0030000
        k(  768) = (  -0.4250000  -1.3750000   0.4250000), wk =   0.0015000
        k(  769) = (  -0.4750000   0.4750000   0.4750000), wk =   0.0005000
        k(  770) = (   0.4750000  -0.4750000   1.4250000), wk =   0.0015000

                       cryst. coord.
        k(    1) = (   0.0250000   0.0250000   0.0250000), wk =   0.0005000
        k(    2) = (   0.0250000   0.0250000   0.0750000), wk =   0.0015000
        k(    3) = (   0.0250000   0.0250000   0.1250000), wk =   0.0015000
        k(    4) = (   0.0250000   0.0250000   0.1750000), wk =   0.0015000
        k(    5) = (   0.0250000   0.0250000   0.2250000), wk =   0.0015000
        k(    6) = (   0.0250000   0.0250000   0.2750000), wk =   0.0015000
        k(    7) = (   0.0250000   0.0250000   0.3250000), wk =   0.0015000
        k(    8) = (   0.0250000   0.0250000   0.3750000), wk =   0.0015000
        k(    9) = (   0.0250000   0.0250000   0.4250000), wk =   0.0015000
        k(   10) = (   0.0250000   0.0250000   0.4750000), wk =   0.0015000
        k(   11) = (   0.0250000   0.0250000  -0.4750000), wk =   0.0015000
        k(   12) = (   0.0250000   0.0250000  -0.4250000), wk =   0.0015000
        k(   13) = (   0.0250000   0.0250000  -0.3750000), wk =   0.0015000
        k(   14) = (   0.0250000   0.0250000  -0.3250000), wk =   0.0015000
        k(   15) = (   0.0250000   0.0250000  -0.2750000), wk =   0.0015000
        k(   16) = (   0.0250000   0.0250000  -0.2250000), wk =   0.0015000
        k(   17) = (   0.0250000   0.0250000  -0.1750000), wk =   0.0015000
        k(   18) = (   0.0250000   0.0250000  -0.1250000), wk =   0.0015000
        k(   19) = (   0.0250000   0.0250000  -0.0750000), wk =   0.0015000
        k(   20) = (   0.0250000   0.0250000  -0.0250000), wk =   0.0015000
        k(   21) = (   0.0250000   0.0750000   0.0750000), wk =   0.0015000
        k(   22) = (   0.0250000   0.0750000   0.1250000), wk =   0.0030000
        k(   23) = (   0.0250000   0.0750000   0.1750000), wk =   0.0030000
        k(   24) = (   0.0250000   0.0750000   0.2250000), wk =   0.0030000
        k(   25) = (   0.0250000   0.0750000   0.2750000), wk =   0.0030000
        k(   26) = (   0.0250000   0.0750000   0.3250000), wk =   0.0030000
        k(   27) = (   0.0250000   0.0750000   0.3750000), wk =   0.0030000
        k(   28) = (   0.0250000   0.0750000   0.4250000), wk =   0.0030000
        k(   29) = (   0.0250000   0.0750000   0.4750000), wk =   0.0030000
        k(   30) = (   0.0250000   0.0750000  -0.4750000), wk =   0.0030000
        k(   31) = (   0.0250000   0.0750000  -0.4250000), wk =   0.0030000
        k(   32) = (   0.0250000   0.0750000  -0.3750000), wk =   0.0030000
        k(   33) = (   0.0250000   0.0750000  -0.3250000), wk =   0.0030000
        k(   34) = (   0.0250000   0.0750000  -0.2750000), wk =   0.0030000
        k(   35) = (   0.0250000   0.0750000  -0.2250000), wk =   0.0030000
        k(   36) = (   0.0250000   0.0750000  -0.1750000), wk =   0.0030000
        k(   37) = (   0.0250000   0.0750000  -0.1250000), wk =   0.0030000
        k(   38) = (   0.0250000   0.0750000  -0.0750000), wk =   0.0030000
        k(   39) = (   0.0250000   0.0750000  -0.0250000), wk =   0.0030000
        k(   40) = (   0.0250000   0.1250000   0.1250000), wk =   0.0015000
        k(   41) = (   0.0250000   0.1250000   0.1750000), wk =   0.0030000
        k(   42) = (   0.0250000   0.1250000   0.2250000), wk =   0.0030000
        k(   43) = (   0.0250000   0.1250000   0.2750000), wk =   0.0030000
        k(   44) = (   0.0250000   0.1250000   0.3250000), wk =   0.0030000
        k(   45) = (   0.0250000   0.1250000   0.3750000), wk =   0.0030000
        k(   46) = (   0.0250000   0.1250000   0.4250000), wk =   0.0030000
        k(   47) = (   0.0250000   0.1250000   0.4750000), wk =   0.0030000
        k(   48) = (   0.0250000   0.1250000  -0.4750000), wk =   0.0030000
        k(   49) = (   0.0250000   0.1250000  -0.4250000), wk =   0.0030000
        k(   50) = (   0.0250000   0.1250000  -0.3750000), wk =   0.0030000
        k(   51) = (   0.0250000   0.1250000  -0.3250000), wk =   0.0030000
        k(   52) = (   0.0250000   0.1250000  -0.2750000), wk =   0.0030000
        k(   53) = (   0.0250000   0.1250000  -0.2250000), wk =   0.0030000
        k(   54) = (   0.0250000   0.1250000  -0.1750000), wk =   0.0030000
        k(   55) = (   0.0250000   0.1250000  -0.1250000), wk =   0.0030000
        k(   56) = (   0.0250000   0.1250000  -0.0750000), wk =   0.0030000
        k(   57) = (   0.0250000   0.1250000  -0.0250000), wk =   0.0030000
        k(   58) = (   0.0250000   0.1750000   0.1750000), wk =   0.0015000
        k(   59) = (   0.0250000   0.1750000   0.2250000), wk =   0.0030000
        k(   60) = (   0.0250000   0.1750000   0.2750000), wk =   0.0030000
        k(   61) = (   0.0250000   0.1750000   0.3250000), wk =   0.0030000
        k(   62) = (   0.0250000   0.1750000   0.3750000), wk =   0.0030000
        k(   63) = (   0.0250000   0.1750000   0.4250000), wk =   0.0030000
        k(   64) = (   0.0250000   0.1750000   0.4750000), wk =   0.0030000
        k(   65) = (   0.0250000   0.1750000  -0.4750000), wk =   0.0030000
        k(   66) = (   0.0250000   0.1750000  -0.4250000), wk =   0.0030000
        k(   67) = (   0.0250000   0.1750000  -0.3750000), wk =   0.0030000
        k(   68) = (   0.0250000   0.1750000  -0.3250000), wk =   0.0030000
        k(   69) = (   0.0250000   0.1750000  -0.2750000), wk =   0.0030000
        k(   70) = (   0.0250000   0.1750000  -0.2250000), wk =   0.0030000
        k(   71) = (   0.0250000   0.1750000  -0.1750000), wk =   0.0030000
        k(   72) = (   0.0250000   0.1750000  -0.1250000), wk =   0.0030000
        k(   73) = (   0.0250000   0.1750000  -0.0750000), wk =   0.0030000
        k(   74) = (   0.0250000   0.1750000  -0.0250000), wk =   0.0030000
        k(   75) = (   0.0250000   0.2250000   0.2250000), wk =   0.0015000
        k(   76) = (   0.0250000   0.2250000   0.2750000), wk =   0.0030000
        k(   77) = (   0.0250000   0.2250000   0.3250000), wk =   0.0030000
[...]

     occupation numbers 
     1.0000   1.0000   1.0000   1.0000   1.0000   1.0000   1.0000   1.0000
     1.0000   1.0000   1.0000   1.0000   1.0000   1.0000   0.0000   0.0000

          k =-0.3250-1.1750 0.3250 (  5023 PWs)   bands (ev):

   -26.4794 -26.4783 -26.4780 -26.4679 -26.4673  -6.1720  -6.0402  -6.0333
    -5.9937  -5.9809  -1.8079   2.2155   5.1846   6.9127  11.0934  14.2222

     occupation numbers 
     1.0000   1.0000   1.0000   1.0000   1.0000   1.0000   1.0000   1.0000
     1.0000   1.0000   1.0000   1.0000   1.0000   1.0000   0.0000   0.0000

          k =-0.3750-1.1250 0.2750 (  5019 PWs)   bands (ev):

   -26.4793 -26.4784 -26.4779 -26.4679 -26.4673  -6.1736  -6.0394  -6.0309
    -5.9945  -5.9815  -1.7285   2.2159   4.9822   6.7626  11.2323  14.3361

     occupation numbers 
     1.0000   1.0000   1.0000   1.0000   1.0000   1.0000   1.0000   1.0000
     1.0000   1.0000   1.0000   1.0000   1.0000   1.0000   0.0000   0.0000

          k =-0.3250-1.0750 0.3250 (  5021 PWs)   bands (ev):

   -26.4794 -26.4783 -26.4780 -26.4679 -26.4673  -6.1744  -6.0383  -6.0303
    -5.9950  -5.9818  -1.6931   2.2236   4.8281   6.8342  11.0155  14.6256

     occupation numbers 
     1.0000   1.0000   1.0000   1.0000   1.0000   1.0000   1.0000   1.0000
     1.0000   1.0000   1.0000   1.0000   1.0000   1.0000   0.0000   0.0000

          k =-0.3750 0.3750 0.3750 (  5000 PWs)   bands (ev):

   -26.4793 -26.4787 -26.4787 -26.4676 -26.4676  -6.1487  -6.0522  -6.0522
    -5.9830  -5.9830  -2.6718   2.8241   7.8245   7.8245   9.9389  13.5557

     occupation numbers 
     1.0000   1.0000   1.0000   1.0000   1.0000   1.0000   1.0000   1.0000
     1.0000   1.0000   1.0000   1.0000   1.0000   1.0000   0.0000   0.0000

          k =-0.4250 0.4250 0.3250 (  4999 PWs)   bands (ev):

   -26.4792 -26.4786 -26.4786 -26.4676 -26.4676  -6.1521  -6.0512  -6.0508
    -5.9838  -5.9821  -2.5608   2.6526   7.4354   7.8375  10.1788  13.5426

     occupation numbers 
     1.0000   1.0000   1.0000   1.0000   1.0000   1.0000   1.0000   1.0000
     1.0000   1.0000   1.0000   1.0000   1.0000   1.0000   0.0000   0.0000

          k =-0.4750 0.4750 0.2750 (  5005 PWs)   bands (ev):

   -26.4792 -26.4786 -26.4786 -26.4676 -26.4676  -6.1560  -6.0490  -6.0487
    -5.9843  -5.9826  -2.4152   2.5224   6.7890   7.7393  10.6952  13.4267

     occupation numbers 
     1.0000   1.0000   1.0000   1.0000   1.0000   1.0000   1.0000   1.0000
     1.0000   1.0000   1.0000   1.0000   1.0000   1.0000   0.0000   0.0000

          k = 0.4750-0.4750 1.2250 (  5007 PWs)   bands (ev):

   -26.4791 -26.4786 -26.4784 -26.4676 -26.4676  -6.1602  -6.0470  -6.0449
    -5.9845  -5.9844  -2.2427   2.4318   6.1204   7.5544  11.1535  13.4052

     occupation numbers 
     1.0000   1.0000   1.0000   1.0000   1.0000   1.0000   1.0000   1.0000
     1.0000   1.0000   1.0000   1.0000   1.0000   1.0000   0.0000   0.0000

          k = 0.4250-0.4250 1.1750 (  5011 PWs)   bands (ev):

   -26.4791 -26.4786 -26.4783 -26.4677 -26.4675  -6.1647  -6.0446  -6.0401
    -5.9874  -5.9841  -2.0543   2.3682   5.5289   7.3204  11.3169  13.7321

     occupation numbers 
     1.0000   1.0000   1.0000   1.0000   1.0000   1.0000   1.0000   1.0000
     1.0000   1.0000   1.0000   1.0000   1.0000   1.0000   0.0000   0.0000

          k = 0.3750-0.3750 1.1250 (  5026 PWs)   bands (ev):

   -26.4792 -26.4785 -26.4781 -26.4678 -26.4674  -6.1695  -6.0417  -6.0351
    -5.9910  -5.9832  -1.8644   2.3073   5.0798   7.0716  11.2136  14.3371

     occupation numbers 
     1.0000   1.0000   1.0000   1.0000   1.0000   1.0000   1.0000   1.0000
     1.0000   1.0000   1.0000   1.0000   1.0000   1.0000   0.0000   0.0000

          k =-0.3750 0.4750 0.3750 (  5004 PWs)   bands (ev):

   -26.4792 -26.4786 -26.4785 -26.4676 -26.4675  -6.1545  -6.0510  -6.0499
    -5.9839  -5.9814  -2.4786   2.4914   7.5584   7.6461  10.1646  13.3688

     occupation numbers 
     1.0000   1.0000   1.0000   1.0000   1.0000   1.0000   1.0000   1.0000
     1.0000   1.0000   1.0000   1.0000   1.0000   1.0000   0.0000   0.0000

          k =-0.4250 0.5250 0.3250 (  5010 PWs)   bands (ev):

   -26.4792 -26.4786 -26.4785 -26.4677 -26.4675  -6.1575  -6.0497  -6.0481
    -5.9846  -5.9813  -2.3629   2.3745   7.0396   7.6218  10.5438  13.2759

     occupation numbers 
     1.0000   1.0000   1.0000   1.0000   1.0000   1.0000   1.0000   1.0000
     1.0000   1.0000   1.0000   1.0000   1.0000   1.0000   0.0000   0.0000

          k = 0.5250-0.4250 1.2750 (  5016 PWs)   bands (ev):

   -26.4792 -26.4786 -26.4784 -26.4677 -26.4675  -6.1609  -6.0478  -6.0450
    -5.9855  -5.9822  -2.2203   2.3037   6.4044   7.4857  11.0454  13.1779

     occupation numbers 
     1.0000   1.0000   1.0000   1.0000   1.0000   1.0000   1.0000   1.0000
     1.0000   1.0000   1.0000   1.0000   1.0000   1.0000   0.0000   0.0000

          k = 0.4750-0.3750 1.2250 (  5011 PWs)   bands (ev):

   -26.4791 -26.4786 -26.4783 -26.4677 -26.4675  -6.1647  -6.0456  -6.0407
    -5.9874  -5.9828  -2.0592   2.2702   5.8017   7.2672  11.3897  13.2783

     occupation numbers 
     1.0000   1.0000   1.0000   1.0000   1.0000   1.0000   1.0000   1.0000
     1.0000   1.0000   1.0000   1.0000   1.0000   1.0000   0.0000   0.0000

          k = 0.4250-0.3250 1.1750 (  5011 PWs)   bands (ev):

   -26.4792 -26.4786 -26.4781 -26.4678 -26.4674  -6.1689  -6.0428  -6.0358
    -5.9906  -5.9826  -1.8906   2.2519   5.3065   7.0144  11.4044  13.7599

     occupation numbers 
     1.0000   1.0000   1.0000   1.0000   1.0000   1.0000   1.0000   1.0000
     1.0000   1.0000   1.0000   1.0000   1.0000   1.0000   0.0000   0.0000

          k =-0.3750 0.5750 0.3750 (  5009 PWs)   bands (ev):

   -26.4792 -26.4786 -26.4784 -26.4677 -26.4675  -6.1598  -6.0490  -6.0467
    -5.9855  -5.9807  -2.2797   2.2705   6.9402   7.4640  10.6768  13.1881

     occupation numbers 
     1.0000   1.0000   1.0000   1.0000   1.0000   1.0000   1.0000   1.0000
     1.0000   1.0000   1.0000   1.0000   1.0000   1.0000   0.0000   0.0000

          k = 0.5750-0.3750 1.3250 (  5010 PWs)   bands (ev):

   -26.4792 -26.4786 -26.4783 -26.4677 -26.4675  -6.1624  -6.0476  -6.0442
    -5.9865  -5.9810  -2.1710   2.2155   6.4830   7.3595  11.0289  13.1096

     occupation numbers 
     1.0000   1.0000   1.0000   1.0000   1.0000   1.0000   1.0000   1.0000
     1.0000   1.0000   1.0000   1.0000   1.0000   1.0000   0.0000   0.0000

          k = 0.5250-0.3250 1.2750 (  5009 PWs)   bands (ev):

   -26.4791 -26.4786 -26.4782 -26.4677 -26.4674  -6.1653  -6.0460  -6.0404
    -5.9880  -5.9818  -2.0430   2.2039   5.9611   7.1576  11.4891  12.9925

     occupation numbers 
     1.0000   1.0000   1.0000   1.0000   1.0000   1.0000   1.0000   1.0000
     1.0000   1.0000   1.0000   1.0000   1.0000   1.0000   0.0000   0.0000

          k = 0.4750-0.2750 1.2250 (  5006 PWs)   bands (ev):

   -26.4791 -26.4787 -26.4780 -26.4678 -26.4674  -6.1687  -6.0439  -6.0358
    -5.9905  -5.9821  -1.9036   2.2167   5.4943   6.8868  11.7979  13.1048

     occupation numbers 
     1.0000   1.0000   1.0000   1.0000   1.0000   1.0000   1.0000   1.0000
     1.0000   1.0000   1.0000   1.0000   1.0000   1.0000   0.0000   0.0000

          k =-0.3750-1.3250 0.3750 (  5012 PWs)   bands (ev):

   -26.4792 -26.4785 -26.4783 -26.4677 -26.4674  -6.1641  -6.0465  -6.0427
    -5.9874  -5.9809  -2.0987   2.1761   6.2457   7.2975  11.0870  13.2437

     occupation numbers 
     1.0000   1.0000   1.0000   1.0000   1.0000   1.0000   1.0000   1.0000
     1.0000   1.0000   1.0000   1.0000   1.0000   1.0000   0.0000   0.0000

          k =-0.4250-1.2750 0.3250 (  5005 PWs)   bands (ev):

   -26.4792 -26.4786 -26.4782 -26.4677 -26.4674  -6.1662  -6.0452  -6.0398
    -5.9886  -5.9815  -2.0079   2.1820   5.8656   7.1563  11.3388  13.2557

     occupation numbers 
     1.0000   1.0000   1.0000   1.0000   1.0000   1.0000   1.0000   1.0000
     1.0000   1.0000   1.0000   1.0000   1.0000   1.0000   0.0000   0.0000

          k =-0.3750-1.2250 0.3750 (  5015 PWs)   bands (ev):

   -26.4792 -26.4785 -26.4782 -26.4678 -26.4674  -6.1674  -6.0438  -6.0385
    -5.9894  -5.9820  -1.9563   2.2030   5.5948   7.1628  11.2277  13.6750

     occupation numbers 
     1.0000   1.0000   1.0000   1.0000   1.0000   1.0000   1.0000   1.0000
     1.0000   1.0000   1.0000   1.0000   1.0000   1.0000   0.0000   0.0000

          k =-0.4250 0.4250 0.4250 (  5012 PWs)   bands (ev):

   -26.4792 -26.4786 -26.4786 -26.4676 -26.4676  -6.1558  -6.0508  -6.0508
    -5.9821  -5.9821  -2.4268   2.3412   7.7441   7.7441   9.8579  13.5247

     occupation numbers 
     1.0000   1.0000   1.0000   1.0000   1.0000   1.0000   1.0000   1.0000
     1.0000   1.0000   1.0000   1.0000   1.0000   1.0000   0.0000   0.0000

          k =-0.4750 0.4750 0.3750 (  5008 PWs)   bands (ev):

   -26.4792 -26.4786 -26.4785 -26.4676 -26.4676  -6.1579  -6.0499  -6.0498
    -5.9825  -5.9818  -2.3431   2.2382   7.4005   7.7297  10.1156  13.4780

     occupation numbers 
     1.0000   1.0000   1.0000   1.0000   1.0000   1.0000   1.0000   1.0000
     1.0000   1.0000   1.0000   1.0000   1.0000   1.0000   0.0000   0.0000

          k = 0.4750-0.4750 1.3250 (  5011 PWs)   bands (ev):

   -26.4792 -26.4786 -26.4785 -26.4676 -26.4676  -6.1605  -6.0485  -6.0473
    -5.9830  -5.9827  -2.2323   2.1870   6.7893   7.6068  10.6508  13.3180

     occupation numbers 
     1.0000   1.0000   1.0000   1.0000   1.0000   1.0000   1.0000   1.0000
     1.0000   1.0000   1.0000   1.0000   1.0000   1.0000   0.0000   0.0000

          k = 0.4250-0.4250 1.2750 (  5012 PWs)   bands (ev):

   -26.4791 -26.4786 -26.4783 -26.4677 -26.4675  -6.1636  -6.0465  -6.0434
    -5.9857  -5.9825  -2.1009   2.1817   6.1530   7.4051  11.1028  13.3066

     occupation numbers 
     1.0000   1.0000   1.0000   1.0000   1.0000   1.0000   1.0000   1.0000
     1.0000   1.0000   1.0000   1.0000   1.0000   1.0000   0.0000   0.0000

          k =-0.4250 0.5250 0.4250 (  5009 PWs)   bands (ev):

   -26.4792 -26.4786 -26.4785 -26.4676 -26.4675  -6.1592  -6.0500  -6.0492
    -5.9827  -5.9812  -2.2937   2.1492   7.4637   7.6318  10.1084  13.3816

     occupation numbers 
     1.0000   1.0000   1.0000   1.0000   1.0000   1.0000   1.0000   1.0000
     1.0000   1.0000   1.0000   1.0000   1.0000   1.0000   0.0000   0.0000

          k = 0.5250-0.4250 1.3750 (  5010 PWs)   bands (ev):

   -26.4792 -26.4786 -26.4785 -26.4676 -26.4675  -6.1609  -6.0490  -6.0475
    -5.9834  -5.9815  -2.2185   2.1146   7.0070   7.5654  10.5048  13.2651

     occupation numbers 
     1.0000   1.0000   1.0000   1.0000   1.0000   1.0000   1.0000   1.0000
     1.0000   1.0000   1.0000   1.0000   1.0000   1.0000   0.0000   0.0000

          k = 0.4750-0.3750 1.3250 (  5011 PWs)   bands (ev):

   -26.4792 -26.4786 -26.4784 -26.4677 -26.4675  -6.1632  -6.0474  -6.0443
    -5.9853  -5.9818  -2.1217   2.1311   6.4221   7.3954  11.0188  13.1324

     occupation numbers 
     1.0000   1.0000   1.0000   1.0000   1.0000   1.0000   1.0000   1.0000
     1.0000   1.0000   1.0000   1.0000   1.0000   1.0000   0.0000   0.0000

          k =-0.4250-1.3750 0.4250 (  5009 PWs)   bands (ev):

   -26.4792 -26.4786 -26.4784 -26.4676 -26.4675  -6.1618  -6.0485  -6.0466
    -5.9840  -5.9814  -2.1809   2.0965   6.8408   7.5137  10.6443  13.2378

     occupation numbers 
     1.0000   1.0000   1.0000   1.0000   1.0000   1.0000   1.0000   1.0000
     1.0000   1.0000   1.0000   1.0000   1.0000   1.0000   0.0000   0.0000

          k =-0.4750 0.4750 0.4750 (  4991 PWs)   bands (ev):

   -26.4792 -26.4785 -26.4785 -26.4676 -26.4676  -6.1595  -6.0501  -6.0501
    -5.9815  -5.9815  -2.2805   2.0753   7.7033   7.7033   9.8167  13.5027

     occupation numbers 
     1.0000   1.0000   1.0000   1.0000   1.0000   1.0000   1.0000   1.0000
     1.0000   1.0000   1.0000   1.0000   1.0000   1.0000   0.0000   0.0000

          k = 0.4750-0.4750 1.4250 (  5008 PWs)   bands (ev):

   -26.4792 -26.4785 -26.4785 -26.4676 -26.4676  -6.1603  -6.0496  -6.0492
    -5.9820  -5.9816  -2.2423   2.0583   7.4103   7.6601  10.0918  13.4162

     occupation numbers 
     1.0000   1.0000   1.0000   1.0000   1.0000   1.0000   1.0000   1.0000
     1.0000   1.0000   1.0000   1.0000   1.0000   1.0000   0.0000   0.0000

     highest occupied, lowest unoccupied level (ev):     8.8723    9.5874

!    total energy              =    -364.72510714 Ry
     estimated scf accuracy    <       0.00000002 Ry

     The total energy is the sum of the following terms:
     one-electron contribution =    -190.11262097 Ry
     hartree contribution      =     113.54345402 Ry
     xc contribution           =     -87.94732635 Ry
     ewald contribution        =    -200.20861384 Ry

     convergence has been achieved in   9 iterations

     Forces acting on atoms (cartesian axes, Ry/au):

     atom    1 type  1   force =     0.00000000    0.00000000   -0.00000000
     atom    2 type  2   force =    -0.00000000    0.00000000    0.00000000
     The non-local contrib.  to forces
     atom    1 type  1   force =     0.00000000    0.00000000    0.00000000
     atom    2 type  2   force =     0.00000000   -0.00000000    0.00000000
     The ionic contribution  to forces
     atom    1 type  1   force =    -0.00000000   -0.00000000    0.00000000
     atom    2 type  2   force =    -0.00000000   -0.00000000   -0.00000000
     The local contribution  to forces
     atom    1 type  1   force =     0.00000000    0.00000000   -0.00000000
     atom    2 type  2   force =    -0.00000000    0.00000000    0.00000000
     The core correction contribution to forces
     atom    1 type  1   force =    -0.00000000    0.00000000    0.00000000
     atom    2 type  2   force =     0.00000000    0.00000000   -0.00000000
     The Hubbard contrib.    to forces
     atom    1 type  1   force =     0.00000000    0.00000000    0.00000000
     atom    2 type  2   force =     0.00000000    0.00000000    0.00000000
     The SCF correction term to forces
     atom    1 type  1   force =    -0.00000000    0.00000000   -0.00000000
     atom    2 type  2   force =    -0.00000000    0.00000000    0.00000000

     Total force =     0.000000     Total SCF correction =     0.000000


     Computing stress (Cartesian axis) and pressure

          total   stress  (Ry/bohr**3)                   (kbar)     P=        0.10
   0.00000070   0.00000000   0.00000000            0.10        0.00        0.00
   0.00000000   0.00000070  -0.00000000            0.00        0.10       -0.00
   0.00000000  -0.00000000   0.00000070            0.00       -0.00        0.10

     kinetic stress (kbar)  91686.97      0.00      0.00
                                0.00  91686.97      0.00
                                0.00      0.00  91686.97

     local   stress (kbar)  -1053.63     -0.00     -0.00
                               -0.00  -1053.63      0.00
                               -0.00      0.00  -1053.63

     nonloc. stress (kbar) -66351.21     -0.00     -0.00
                               -0.00 -66351.21     -0.00
                               -0.00     -0.00 -66351.21

     hartree stress (kbar)  18778.75      0.00     -0.00
                                0.00  18778.75      0.00
                               -0.00      0.00  18778.75

     exc-cor stress (kbar)  14444.86      0.00      0.00
                                0.00  14444.86      0.00
                                0.00      0.00  14444.86

     corecor stress (kbar) -24393.49     -0.00     -0.00
                               -0.00 -24393.49      0.00
                               -0.00      0.00 -24393.49

     ewald   stress (kbar) -33112.15      0.00     -0.00
                                0.00 -33112.15     -0.00
                               -0.00     -0.00 -33112.15

     hubbard stress (kbar)      0.00      0.00      0.00
                                0.00      0.00      0.00
                                0.00      0.00      0.00

     DFT-D   stress (kbar)      0.00      0.00      0.00
                                0.00      0.00      0.00
                                0.00      0.00      0.00

     XDM     stress (kbar)      0.00      0.00      0.00
                                0.00      0.00      0.00
                                0.00      0.00      0.00

     dft-nl  stress (kbar)      0.00      0.00      0.00
                                0.00      0.00      0.00
                                0.00      0.00      0.00

     TS-vdW  stress (kbar)      0.00      0.00      0.00
                                0.00      0.00      0.00
                                0.00      0.00      0.00

     MDB     stress (kbar)      0.00      0.00      0.00
                                0.00      0.00      0.00
                                0.00      0.00      0.00

     3D-RISM stress (kbar)      0.00      0.00      0.00
                                0.00      0.00      0.00
                                0.00      0.00      0.00


     Writing all to output data dir /home/sachs/software/q-e/tempdir/gaasLDA.save/ :
     XML data file, charge density, pseudopotentials, collected wavefunctions

     init_run     :      0.72s CPU      1.40s WALL (       1 calls)
     electrons    :      8.52s CPU     65.88s WALL (       1 calls)
     forces       :      0.08s CPU      0.15s WALL (       1 calls)
     stress       :      0.24s CPU      0.51s WALL (       1 calls)

     Called by init_run:
     wfcinit      :      0.19s CPU      0.72s WALL (       1 calls)
     wfcinit:atom :      0.00s CPU      0.00s WALL (      49 calls)
     wfcinit:wfcr :      0.17s CPU      0.69s WALL (      49 calls)
     potinit      :      0.23s CPU      0.23s WALL (       1 calls)
     hinit0       :      0.28s CPU      0.36s WALL (       1 calls)

     Called by electrons:
     c_bands      :      7.94s CPU     62.96s WALL (      10 calls)
     sum_band     :      0.55s CPU      2.63s WALL (      10 calls)
     v_of_rho     :      0.01s CPU      0.03s WALL (      10 calls)
     v_h          :      0.00s CPU      0.01s WALL (      10 calls)
     v_xc         :      0.01s CPU      0.02s WALL (      12 calls)
     mix_rho      :      0.00s CPU      0.04s WALL (      10 calls)

     Called by c_bands:
     init_us_2    :      0.03s CPU      0.11s WALL (    1127 calls)
     ccgdiagg     :      6.70s CPU     54.31s WALL (     490 calls)
     wfcrot       :      1.25s CPU      5.66s WALL (     441 calls)

     Called by sum_band:
     sum_band:wei :      0.00s CPU      0.01s WALL (      10 calls)
     sum_band:loo :      0.55s CPU      2.58s WALL (      10 calls)
     sum_band:buf :      0.00s CPU      0.01s WALL (     490 calls)
     sum_band:ini :      0.01s CPU      0.04s WALL (     490 calls)

     Called by *cgdiagg:
     h_psi        :      3.74s CPU     24.61s WALL (   22036 calls)

     Called by h_psi:
     h_psi:calbec :      1.23s CPU      6.84s WALL (   22036 calls)
     vloc_psi     :      2.34s CPU     17.05s WALL (   22036 calls)
                                        0.00s GPU  (   22036 calls)
     add_vuspsi   :      0.15s CPU      0.58s WALL (   22036 calls)
     hs_1psi      :      2.75s CPU     19.68s WALL (   21595 calls)
     s_1psi       :      0.68s CPU      6.37s WALL (   21595 calls)

     General routines
     calbec       :      2.16s CPU     13.66s WALL (   44464 calls)
     fft          :      0.27s CPU      0.37s WALL (      56 calls)
     ffts         :      0.22s CPU      0.23s WALL (      20 calls)
     fftw         :      2.81s CPU     19.15s WALL (   65338 calls)
     interpolate  :      0.22s CPU      0.23s WALL (      10 calls)

     Parallel routines

     PWSCF        :     12.75s CPU   1m24.09s WALL


   This run was terminated on:  12: 1:56  25Feb2026            

=------------------------------------------------------------------------------=
   JOB DONE.
=------------------------------------------------------------------------------=
