
     Program PWSCF v.7.5 starts on 26Jan2026 at 15:51:19 

     This program is part of the open-source Quantum ESPRESSO suite
     for quantum simulation of materials; please cite
         "P. Giannozzi et al., J. Phys.:Condens. Matter 21 395502 (2009);
         "P. Giannozzi et al., J. Phys.:Condens. Matter 29 465901 (2017);
         "P. Giannozzi et al., J. Chem. Phys. 152 154105 (2020);
          URL http://www.quantum-espresso.org", 
     in publications or presentations arising from this work. More details at
     http://www.quantum-espresso.org/quote

     Parallel version (MPI), running on     1 processors

     MPI processes distributed on     1 nodes
     25047 MiB available memory on the printing compute node when the environment starts

     Waiting for input...
     Reading input from standard input

     Current dimensions of program PWSCF are:
     Max number of different atomic species (ntypx) = 10
     Max number of k-points (npk) =  40000
     Max angular momentum in pseudopotentials (lmaxx) =  4
     file Ga.pbe-dn-kjpaw_psl.1.0.0.UPF: wavefunction(s)  4S renormalized
     file Al.pbe-n-kjpaw_psl.1.0.0.UPF: wavefunction(s)  3S 3P renormalized
     Message from routine volume:
     axis vectors are left-handed
     Message from routine setup:
     using ibrav=0 with symmetry is DISCOURAGED, use correct ibrav instead

     Subspace diagonalization in iterative solution of the eigenvalue problem:
     a serial algorithm will be used


     G-vector sticks info
     --------------------
     sticks:   dense  smooth     PW     G-vecs:    dense   smooth      PW
     Sum         769     769    235                14163    14163    2277

     Using Slab Decomposition



     bravais-lattice index     =            0
     lattice parameter (alat)  =      10.6829  a.u.
     unit-cell volume          =     304.7984 (a.u.)^3
     number of atoms/cell      =            2
     number of atomic types    =            2
     number of electrons       =        16.00
     number of Kohn-Sham states=           12
     kinetic-energy cutoff     =      48.8889  Ry
     charge density cutoff     =     195.5556  Ry
     scf convergence threshold =      1.0E-06
     mixing beta               =       0.7000
     number of iterations used =            8  plain     mixing
     Exchange-correlation= SLA  PW   PBX  PBC
                           (   1   4   3   4   0   0   0)

     celldm(1)=  10.682943  celldm(2)=   0.000000  celldm(3)=   0.000000
     celldm(4)=   0.000000  celldm(5)=   0.000000  celldm(6)=   0.000000

     crystal axes: (cart. coord. in units of alat)
               a(1) = (   0.500000   0.500000   0.000000 )  
               a(2) = (   0.500000   0.000000   0.500000 )  
               a(3) = (   0.000000   0.500000   0.500000 )  

     reciprocal axes: (cart. coord. in units 2 pi/alat)
               b(1) = (  1.000000  1.000000 -1.000000 )  
               b(2) = (  1.000000 -1.000000  1.000000 )  
               b(3) = ( -1.000000  1.000000  1.000000 )  


     PseudoPot. # 1 for Ga read from file:
     /home/nico-sachs/source/q-e/SSSP_1.3.0_PBE_efficiency/Ga.pbe-dn-kjpaw_psl.1.0.0.UPF
     MD5 check sum: a27b4342b1af7e5f338de752e9ed7044
     Pseudo is Projector augmented-wave + core cor, Zval = 13.0
     Generated using "atomic" code by A. Dal Corso  v.5.1
     Shape of augmentation charge: PSQ
     Using radial grid of 1205 points,  6 beta functions with: 
                l(1) =   0
                l(2) =   0
                l(3) =   1
                l(4) =   1
                l(5) =   2
                l(6) =   2
     Q(r) pseudized with 0 coefficients 


     PseudoPot. # 2 for Al read from file:
     /home/nico-sachs/source/q-e/SSSP_1.3.0_PBE_efficiency/Al.pbe-n-kjpaw_psl.1.0.0.UPF
     MD5 check sum: cfc449ca30b5f3223ec38ddd88ac046d
     Pseudo is Projector augmented-wave + core cor, Zval =  3.0
     Generated using "atomic" code by A. Dal Corso  v.5.1
     Shape of augmentation charge: PSQ
     Using radial grid of 1135 points,  6 beta functions with: 
                l(1) =   0
                l(2) =   0
                l(3) =   1
                l(4) =   1
                l(5) =   2
                l(6) =   2
     Q(r) pseudized with 0 coefficients 


     atomic species   valence    mass     pseudopotential
     Ga               13.00    69.72300     Ga( 1.00)
     As                3.00    74.92100     Al( 1.00)

     24 Sym. Ops. (no inversion) found



   Cartesian axes

     site n.     atom                  positions (alat units)
         1        As     tau(   1) = (   0.2500000   0.2500000   0.2500000  )
         2        Ga     tau(   2) = (   0.0000000   0.0000000   0.0000000  )

     number of k points=    60  Marzari-Vanderbilt smearing, width (Ry)=  0.0500
                       cart. coord. in units 2pi/alat
        k(    1) = (   0.0625000   0.0625000   0.0625000), wk =   0.0078125
        k(    2) = (   0.0625000   0.0625000   0.1875000), wk =   0.0234375
        k(    3) = (   0.0625000   0.0625000   0.3125000), wk =   0.0234375
        k(    4) = (   0.0625000   0.0625000   0.4375000), wk =   0.0234375
        k(    5) = (   0.0625000   0.0625000   0.5625000), wk =   0.0234375
        k(    6) = (   0.0625000   0.0625000   0.6875000), wk =   0.0234375
        k(    7) = (   0.0625000   0.0625000   0.8125000), wk =   0.0234375
        k(    8) = (   0.0625000   0.0625000   0.9375000), wk =   0.0234375
        k(    9) = (   0.0625000   0.1875000   0.1875000), wk =   0.0234375
        k(   10) = (   0.0625000   0.1875000   0.3125000), wk =   0.0468750
        k(   11) = (   0.0625000   0.1875000   0.4375000), wk =   0.0468750
        k(   12) = (   0.0625000   0.1875000   0.5625000), wk =   0.0468750
        k(   13) = (   0.0625000   0.1875000   0.6875000), wk =   0.0468750
        k(   14) = (   0.0625000   0.1875000   0.8125000), wk =   0.0468750
        k(   15) = (   0.0625000   0.1875000   0.9375000), wk =   0.0468750
        k(   16) = (   0.0625000   0.3125000   0.3125000), wk =   0.0234375
        k(   17) = (   0.0625000   0.3125000   0.4375000), wk =   0.0468750
        k(   18) = (   0.0625000   0.3125000   0.5625000), wk =   0.0468750
        k(   19) = (   0.0625000   0.3125000   0.6875000), wk =   0.0468750
        k(   20) = (   0.0625000   0.3125000   0.8125000), wk =   0.0468750
        k(   21) = (   0.0625000   0.3125000   0.9375000), wk =   0.0468750
        k(   22) = (   0.0625000   0.4375000   0.4375000), wk =   0.0234375
        k(   23) = (   0.0625000   0.4375000   0.5625000), wk =   0.0468750
        k(   24) = (   0.0625000   0.4375000   0.6875000), wk =   0.0468750
        k(   25) = (   0.0625000   0.4375000   0.8125000), wk =   0.0468750
        k(   26) = (   0.0625000   0.4375000   0.9375000), wk =   0.0468750
        k(   27) = (   0.0625000   0.5625000   0.5625000), wk =   0.0234375
        k(   28) = (   0.0625000   0.5625000   0.6875000), wk =   0.0468750
        k(   29) = (   0.0625000   0.5625000   0.8125000), wk =   0.0468750
        k(   30) = (   0.0625000   0.6875000   0.6875000), wk =   0.0234375
        k(   31) = (   0.0625000   0.6875000   0.8125000), wk =   0.0468750
        k(   32) = (   0.0625000   0.8125000   0.8125000), wk =   0.0234375
        k(   33) = (   0.1875000   0.1875000   0.1875000), wk =   0.0078125
        k(   34) = (   0.1875000   0.1875000   0.3125000), wk =   0.0234375
        k(   35) = (   0.1875000   0.1875000   0.4375000), wk =   0.0234375
        k(   36) = (   0.1875000   0.1875000   0.5625000), wk =   0.0234375
        k(   37) = (   0.1875000   0.1875000   0.6875000), wk =   0.0234375
        k(   38) = (   0.1875000   0.1875000   0.8125000), wk =   0.0234375
        k(   39) = (   0.1875000   0.3125000   0.3125000), wk =   0.0234375
        k(   40) = (   0.1875000   0.3125000   0.4375000), wk =   0.0468750
        k(   41) = (   0.1875000   0.3125000   0.5625000), wk =   0.0468750
        k(   42) = (   0.1875000   0.3125000   0.6875000), wk =   0.0468750
        k(   43) = (   0.1875000   0.3125000   0.8125000), wk =   0.0468750
        k(   44) = (   0.1875000   0.4375000   0.4375000), wk =   0.0234375
        k(   45) = (   0.1875000   0.4375000   0.5625000), wk =   0.0468750
        k(   46) = (   0.1875000   0.4375000   0.6875000), wk =   0.0468750
        k(   47) = (   0.1875000   0.4375000   0.8125000), wk =   0.0468750
        k(   48) = (   0.1875000   0.5625000   0.5625000), wk =   0.0234375
        k(   49) = (   0.1875000   0.5625000   0.6875000), wk =   0.0468750
        k(   50) = (   0.1875000   0.6875000   0.6875000), wk =   0.0234375
        k(   51) = (   0.3125000   0.3125000   0.3125000), wk =   0.0078125
        k(   52) = (   0.3125000   0.3125000   0.4375000), wk =   0.0234375
        k(   53) = (   0.3125000   0.3125000   0.5625000), wk =   0.0234375
        k(   54) = (   0.3125000   0.3125000   0.6875000), wk =   0.0234375
        k(   55) = (   0.3125000   0.4375000   0.4375000), wk =   0.0234375
        k(   56) = (   0.3125000   0.4375000   0.5625000), wk =   0.0468750
        k(   57) = (   0.3125000   0.4375000   0.6875000), wk =   0.0468750
        k(   58) = (   0.3125000   0.5625000   0.5625000), wk =   0.0234375
        k(   59) = (   0.4375000   0.4375000   0.4375000), wk =   0.0078125
        k(   60) = (   0.4375000   0.4375000   0.5625000), wk =   0.0234375

     Dense  grid:    14163 G-vectors     FFT dimensions: (  36,  36,  36)

     Estimated max dynamical RAM per process >      75.82 MB

     Check: negative core charge=   -0.000003

     Initial potential from superposition of free atoms

     starting charge      15.9948, renormalised to      16.0000
     Starting wfcs are   13 randomized atomic wfcs
     Checking if some PAW data can be deallocated... 

     total cpu time spent up to now is        2.1 secs

     Self-consistent Calculation

     iteration #  1     ecut=    48.89 Ry     beta= 0.70
     CG style diagonalization
     ethr =  1.00E-02,  avg # of iterations =  3.0

     Threshold (ethr) on eigenvalues was too large:
     Diagonalizing with lowered threshold

     CG style diagonalization
     c_bands:  2 eigenvalues not converged
     c_bands:  1 eigenvalues not converged
     c_bands:  1 eigenvalues not converged
     c_bands:  1 eigenvalues not converged
     c_bands:  1 eigenvalues not converged
     ethr =  4.69E-05,  avg # of iterations =  8.0

     total cpu time spent up to now is       12.9 secs

     total energy              =    -317.34834721 Ry
     estimated scf accuracy    <       0.00999390 Ry

     iteration #  2     ecut=    48.89 Ry     beta= 0.70
     CG style diagonalization
     ethr =  6.25E-05,  avg # of iterations =  3.0

     total cpu time spent up to now is       16.2 secs

     total energy              =    -317.34873624 Ry
     estimated scf accuracy    <       0.00083670 Ry

     iteration #  3     ecut=    48.89 Ry     beta= 0.70
     CG style diagonalization
     c_bands:  1 eigenvalues not converged
     c_bands:  1 eigenvalues not converged
     c_bands:  1 eigenvalues not converged
     c_bands:  1 eigenvalues not converged
     ethr =  5.23E-06,  avg # of iterations =  4.9

     total cpu time spent up to now is       21.2 secs

     total energy              =    -317.34897708 Ry
     estimated scf accuracy    <       0.00000875 Ry

     iteration #  4     ecut=    48.89 Ry     beta= 0.70
     CG style diagonalization
     c_bands:  1 eigenvalues not converged
     c_bands:  2 eigenvalues not converged
     c_bands:  1 eigenvalues not converged
     c_bands:  1 eigenvalues not converged
     c_bands:  1 eigenvalues not converged
     c_bands:  1 eigenvalues not converged
     c_bands:  1 eigenvalues not converged
     c_bands:  1 eigenvalues not converged
     c_bands:  1 eigenvalues not converged
     c_bands:  1 eigenvalues not converged
     c_bands:  1 eigenvalues not converged
     c_bands:  1 eigenvalues not converged
     c_bands:  1 eigenvalues not converged
     c_bands:  1 eigenvalues not converged
     ethr =  5.47E-08,  avg # of iterations = 10.5

     total cpu time spent up to now is       30.9 secs

     total energy              =    -317.34918613 Ry
     estimated scf accuracy    <       0.00016793 Ry

     iteration #  5     ecut=    48.89 Ry     beta= 0.70
     CG style diagonalization
     c_bands:  1 eigenvalues not converged
     ethr =  5.47E-08,  avg # of iterations =  3.2

     total cpu time spent up to now is       34.3 secs

     total energy              =    -317.34922641 Ry
     estimated scf accuracy    <       0.00017063 Ry

     iteration #  6     ecut=    48.89 Ry     beta= 0.70
     CG style diagonalization
     ethr =  5.47E-08,  avg # of iterations =  4.1

     total cpu time spent up to now is       38.5 secs

     total energy              =    -317.35023651 Ry
     estimated scf accuracy    <       0.00033543 Ry

     iteration #  7     ecut=    48.89 Ry     beta= 0.70
     CG style diagonalization
     c_bands:  1 eigenvalues not converged
     c_bands:  1 eigenvalues not converged
     c_bands:  1 eigenvalues not converged
     c_bands:  1 eigenvalues not converged
     c_bands:  1 eigenvalues not converged
     c_bands:  1 eigenvalues not converged
     c_bands:  1 eigenvalues not converged
     c_bands:  1 eigenvalues not converged
     c_bands:  1 eigenvalues not converged
     c_bands:  1 eigenvalues not converged
     ethr =  5.47E-08,  avg # of iterations =  9.0

     total cpu time spent up to now is       46.8 secs

     total energy              =    -317.34850202 Ry
     estimated scf accuracy    <       0.00890393 Ry

     iteration #  8     ecut=    48.89 Ry     beta= 0.70
     CG style diagonalization
     c_bands:  1 eigenvalues not converged
     c_bands:  1 eigenvalues not converged
     c_bands:  1 eigenvalues not converged
     ethr =  5.47E-08,  avg # of iterations =  8.2

     total cpu time spent up to now is       54.5 secs

     total energy              =    -317.34908083 Ry
     estimated scf accuracy    <       0.00025040 Ry

     iteration #  9     ecut=    48.89 Ry     beta= 0.70
     CG style diagonalization
     ethr =  5.47E-08,  avg # of iterations =  7.4

     total cpu time spent up to now is       61.5 secs

     total energy              =    -317.34916121 Ry
     estimated scf accuracy    <       0.00020124 Ry

     iteration # 10     ecut=    48.89 Ry     beta= 0.70
     CG style diagonalization
     ethr =  5.47E-08,  avg # of iterations =  3.5

     total cpu time spent up to now is       65.1 secs

     total energy              =    -317.34912851 Ry
     estimated scf accuracy    <       0.00010045 Ry

     iteration # 11     ecut=    48.89 Ry     beta= 0.70
     CG style diagonalization
     ethr =  5.47E-08,  avg # of iterations =  5.4

     total cpu time spent up to now is       70.6 secs

     total energy              =    -317.34914822 Ry
     estimated scf accuracy    <       0.00000243 Ry

     iteration # 12     ecut=    48.89 Ry     beta= 0.70
     CG style diagonalization
     ethr =  1.52E-08,  avg # of iterations =  3.8

     total cpu time spent up to now is       74.9 secs

     total energy              =    -317.34914952 Ry
     estimated scf accuracy    <       0.00000139 Ry

     iteration # 13     ecut=    48.89 Ry     beta= 0.70
     CG style diagonalization
     ethr =  8.66E-09,  avg # of iterations =  3.6

     total cpu time spent up to now is       78.9 secs

     End of self-consistent calculation

          k = 0.0625 0.0625 0.0625 (  1789 PWs)   bands (ev):

    -9.0283  -9.0275  -9.0275  -8.9659  -8.9659  -3.8335   7.5883   8.0801
     8.0801  10.4719  10.5233  10.5233

          k = 0.0625 0.0625 0.1875 (  1781 PWs)   bands (ev):

    -9.0300  -9.0252  -9.0250  -8.9670  -8.9647  -3.6993   6.8128   7.5564
     7.7907  10.1523  10.9150  11.1949

          k = 0.0625 0.0625 0.3125 (  1777 PWs)   bands (ev):

    -9.0333  -9.0205  -9.0202  -8.9694  -8.9626  -3.4322   5.9506   6.9137
     7.0694   9.6264  11.7051  12.1193

          k = 0.0625 0.0625 0.4375 (  1770 PWs)   bands (ev):

    -9.0376  -9.0142  -9.0140  -8.9727  -8.9599  -3.0346   5.0363   6.3116
     6.3154   9.0983  10.9901  13.1162

          k = 0.0625 0.0625 0.5625 (  1754 PWs)   bands (ev):

    -9.0423  -9.0074  -9.0070  -8.9765  -8.9570  -2.5118   4.0525   5.6733
     5.8113   8.6410  10.0714  14.0154

          k = 0.0625 0.0625 0.6875 (  1744 PWs)   bands (ev):

    -9.0465  -9.0009  -9.0005  -8.9804  -8.9544  -1.8738   3.0196   5.1982
     5.4218   8.2850   9.3724  15.1267

          k = 0.0625 0.0625 0.8125 (  1747 PWs)   bands (ev):

    -9.0498  -8.9959  -8.9955  -8.9836  -8.9525  -1.1451   1.9993   4.8865
     5.1575   8.0445   8.9121  16.1513

          k = 0.0625 0.0625 0.9375 (  1748 PWs)   bands (ev):

    -9.0515  -8.9932  -8.9927  -8.9853  -8.9514  -0.4371   1.1365   4.7323
     5.0240   7.9235   8.6838  17.0553

          k = 0.0625 0.1875 0.1875 (  1770 PWs)   bands (ev):

    -9.0295  -9.0247  -9.0232  -8.9668  -8.9647  -3.5661   6.0156   7.1135
     7.9810  10.5804  10.7237  11.1239

          k = 0.0625 0.1875 0.3125 (  1773 PWs)   bands (ev):

    -9.0317  -9.0208  -9.0196  -8.9685  -8.9630  -3.3011   5.2035   6.4627
     7.5514  10.2698  11.1802  11.8438

          k = 0.0625 0.1875 0.4375 (  1765 PWs)   bands (ev):

    -9.0355  -9.0152  -9.0142  -8.9713  -8.9604  -2.9076   4.4203   5.8326
     6.7793   9.7529  11.4749  12.0580

          k = 0.0625 0.1875 0.5625 (  1756 PWs)   bands (ev):

    -9.0397  -9.0095  -9.0074  -8.9748  -8.9577  -2.3916   3.6407   5.2655
     6.0023   9.2742  10.6664  12.8985

          k = 0.0625 0.1875 0.6875 (  1754 PWs)   bands (ev):

    -9.0435  -9.0040  -9.0008  -8.9784  -8.9555  -1.7654   2.8187   4.7765
     5.4010   8.8852  10.0599  13.7887

          k = 0.0625 0.1875 0.8125 (  1753 PWs)   bands (ev):

    -9.0464  -8.9996  -8.9958  -8.9814  -8.9539  -1.0583   1.9552   4.4120
     5.0295   8.6132   9.6726  14.7179

          k = 0.0625 0.1875 0.9375 (  1749 PWs)   bands (ev):

    -9.0480  -8.9970  -8.9930  -8.9832  -8.9531  -0.3913   1.1951   4.2224
     4.8561   8.4734   9.4849  15.6625

          k = 0.0625 0.3125 0.3125 (  1767 PWs)   bands (ev):

    -9.0307  -9.0196  -9.0180  -8.9678  -8.9631  -3.0410   4.4409   5.8235
     7.6506  10.7861  11.1512  11.5112

          k = 0.0625 0.3125 0.4375 (  1763 PWs)   bands (ev):

    -9.0324  -9.0159  -9.0143  -8.9691  -8.9616  -2.6564   3.7346   5.2158
     7.1157  10.7219  11.0661  12.2875

          k = 0.0625 0.3125 0.5625 (  1760 PWs)   bands (ev):

    -9.0353  -9.0127  -9.0078  -8.9719  -8.9594  -2.1561   3.0858   4.6927
     6.2620  10.2852  11.4559  11.7851

          k = 0.0625 0.3125 0.6875 (  1752 PWs)   bands (ev):

    -9.0383  -9.0091  -9.0012  -8.9751  -8.9576  -1.5572   2.4659   4.2714
     5.4190   9.9053  11.1207  12.3119

          k = 0.0625 0.3125 0.8125 (  1751 PWs)   bands (ev):

    -9.0406  -9.0059  -8.9960  -8.9779  -8.9565  -0.8996   1.8396   3.9593
     4.7931   9.6400  10.8016  13.1326

          k = 0.0625 0.3125 0.9375 (  1753 PWs)   bands (ev):

    -9.0419  -9.0039  -8.9932  -8.9797  -8.9560  -0.3218   1.2846   3.7819
     4.4818   9.5042  10.6427  14.0392

          k = 0.0625 0.4375 0.4375 (  1762 PWs)   bands (ev):

    -9.0308  -9.0150  -9.0130  -8.9672  -8.9630  -2.2883   3.0991   4.6336
     7.0535  10.3447  11.8572  12.1161

          k = 0.0625 0.4375 0.5625 (  1763 PWs)   bands (ev):

    -9.0316  -9.0142  -9.0078  -8.9684  -8.9623  -1.8169   2.5424   4.1485
     6.4523  10.2857  11.5792  12.9286

          k = 0.0625 0.4375 0.6875 (  1761 PWs)   bands (ev):

    -9.0334  -9.0130  -9.0015  -8.9716  -8.9605  -1.2690   2.0653   3.7920
     5.5769  10.6386  11.3146  12.5443

          k = 0.0625 0.4375 0.8125 (  1758 PWs)   bands (ev):

    -9.0349  -9.0116  -8.9962  -8.9747  -8.9593  -0.7032   1.6571   3.5881
     4.7537  10.8213  11.5322  12.3134

          k = 0.0625 0.4375 0.9375 (  1759 PWs)   bands (ev):

    -9.0357  -9.0105  -8.9933  -8.9766  -8.9586  -0.2686   1.3531   3.5414
     4.2140  10.7592  11.8714  12.5968

          k = 0.0625 0.5625 0.5625 (  1765 PWs)   bands (ev):

    -9.0314  -9.0127  -9.0062  -8.9667  -8.9644  -1.3968   2.0747   3.7106
     6.3524   9.5514  12.8566  13.0835

          k = 0.0625 0.5625 0.6875 (  1756 PWs)   bands (ev):

    -9.0331  -9.0114  -9.0014  -8.9707  -8.9617  -0.9395   1.7127   3.4299
     5.7675   9.5265  12.6660  13.9256

          k = 0.0625 0.5625 0.8125 (  1757 PWs)   bands (ev):

    -9.0348  -9.0109  -8.9963  -8.9744  -8.9597  -0.5247   1.4709   3.3605
     4.9424  10.0281  12.3940  13.1992

          k = 0.0625 0.6875 0.6875 (  1764 PWs)   bands (ev):

    -9.0367  -9.0067  -8.9999  -8.9738  -8.9597  -0.6323   1.4646   3.2649
     5.7222   8.8464  12.9383  14.1261

          k = 0.0625 0.6875 0.8125 (  1755 PWs)   bands (ev):

    -9.0400  -9.0044  -8.9961  -8.9775  -8.9573  -0.4182   1.3330   3.3739
     5.2109   8.9209  11.7110  14.1223

          k = 0.0625 0.8125 0.8125 (  1754 PWs)   bands (ev):

    -9.0451  -8.9987  -8.9952  -8.9810  -8.9546  -0.3881   1.2433   3.6794
     5.2633   8.3327  10.4830  15.5974

          k = 0.1875 0.1875 0.1875 (  1775 PWs)   bands (ev):

    -9.0295  -9.0228  -9.0228  -8.9656  -8.9656  -3.4341   5.2327   7.5750
     7.5751  10.1230  11.1461  11.1465

          k = 0.1875 0.1875 0.3125 (  1777 PWs)   bands (ev):

    -9.0311  -9.0204  -9.0193  -8.9673  -8.9634  -3.1718   4.4497   7.0233
     7.3047  10.2347  10.9329  11.7398

          k = 0.1875 0.1875 0.4375 (  1764 PWs)   bands (ev):

    -9.0342  -9.0160  -9.0143  -8.9699  -8.9607  -2.7832   3.7364   6.4809
     6.4948   9.8807  11.5944  12.3871

          k = 0.1875 0.1875 0.5625 (  1755 PWs)   bands (ev):

    -9.0378  -9.0107  -9.0085  -8.9731  -8.9582  -2.2763   3.0899   5.5518
     6.0108   9.3146  11.4731  13.0824

          k = 0.1875 0.1875 0.6875 (  1759 PWs)   bands (ev):

    -9.0412  -9.0054  -9.0027  -8.9764  -8.9563  -1.6665   2.4726   4.6726
     5.6426   8.8341  10.9662  13.8548

          k = 0.1875 0.1875 0.8125 (  1752 PWs)   bands (ev):

    -9.0437  -9.0012  -8.9979  -8.9793  -8.9551  -0.9914   1.8319   4.0149
     5.3909   8.5014  10.6416  14.7096

          k = 0.1875 0.3125 0.3125 (  1766 PWs)   bands (ev):

    -9.0310  -9.0189  -9.0178  -8.9663  -8.9633  -2.9156   3.6943   6.6041
     7.4574  10.1624  11.1059  11.4317

          k = 0.1875 0.3125 0.4375 (  1766 PWs)   bands (ev):

    -9.0324  -9.0162  -9.0145  -8.9677  -8.9615  -2.5387   3.0263   6.0150
     7.0054  10.2991  10.9731  11.8972

          k = 0.1875 0.3125 0.5625 (  1761 PWs)   bands (ev):

    -9.0347  -9.0130  -9.0092  -8.9702  -8.9595  -2.0529   2.4622   5.3657
     6.2836   9.8577  11.5263  12.6116

          k = 0.1875 0.3125 0.6875 (  1758 PWs)   bands (ev):

    -9.0371  -9.0095  -9.0036  -8.9731  -8.9580  -1.4826   1.9990   4.6001
     5.7090   9.3996  12.0197  12.4817

          k = 0.1875 0.3125 0.8125 (  1752 PWs)   bands (ev):

    -9.0390  -9.0064  -8.9989  -8.9758  -8.9574  -0.8850   1.6182   3.8486
     5.3689   9.0815  11.8404  13.2309

          k = 0.1875 0.4375 0.4375 (  1768 PWs)   bands (ev):

    -9.0316  -9.0149  -9.0138  -8.9658  -8.9625  -2.1839   2.4081   5.4856
     7.0405  10.2935  11.3519  11.3948

          k = 0.1875 0.4375 0.5625 (  1764 PWs)   bands (ev):

    -9.0322  -9.0142  -9.0094  -8.9669  -8.9617  -1.7396   1.9185   4.9603
     6.5098  10.3609  10.9026  12.4743

          k = 0.1875 0.4375 0.6875 (  1765 PWs)   bands (ev):

    -9.0333  -9.0132  -9.0039  -8.9698  -8.9605  -1.2485   1.5861   4.4263
     5.7695  10.4012  10.9491  13.5319

          k = 0.1875 0.4375 0.8125 (  1760 PWs)   bands (ev):

    -9.0342  -9.0118  -8.9991  -8.9726  -8.9598  -0.7983   1.4438   3.8417
     5.2046  10.1608  11.6245  13.3182

          k = 0.1875 0.5625 0.5625 (  1767 PWs)   bands (ev):

    -9.0319  -9.0132  -9.0080  -8.9656  -8.9633  -1.3746   1.5286   4.5384
     6.4283   9.6876  12.1223  12.1625

          k = 0.1875 0.5625 0.6875 (  1762 PWs)   bands (ev):

    -9.0331  -9.0123  -9.0038  -8.9692  -8.9612  -1.0304   1.3572   4.1631
     5.8965   9.6745  11.8415  13.5102

          k = 0.1875 0.6875 0.6875 (  1753 PWs)   bands (ev):

    -9.0360  -9.0083  -9.0024  -8.9723  -8.9593  -0.9065   1.3866   3.9360
     5.8345   9.0147  12.9394  13.3100

          k = 0.3125 0.3125 0.3125 (  1763 PWs)   bands (ev):

    -9.0315  -9.0173  -9.0173  -8.9640  -8.9640  -2.6688   2.9541   7.1248
     7.1250   9.7154  11.1908  11.1908

          k = 0.3125 0.3125 0.4375 (  1768 PWs)   bands (ev):

    -9.0325  -9.0160  -9.0146  -8.9654  -8.9617  -2.3103   2.3210   6.7357
     6.7948   9.9339  10.8469  11.4688

          k = 0.3125 0.3125 0.5625 (  1760 PWs)   bands (ev):

    -9.0337  -9.0138  -9.0108  -8.9675  -8.9599  -1.8603   1.8268   5.9085
     6.3619   9.7861  11.3131  11.9292

          k = 0.3125 0.3125 0.6875 (  1762 PWs)   bands (ev):

    -9.0350  -9.0110  -9.0065  -8.9700  -8.9592  -1.3622   1.5015   4.8898
     6.0525   9.3443  12.2667  12.5507

          k = 0.3125 0.4375 0.4375 (  1756 PWs)   bands (ev):

    -9.0327  -9.0146  -9.0145  -8.9637  -8.9620  -1.9890   1.7408   6.3932
     6.9929   9.8774  11.0208  11.0334

          k = 0.3125 0.4375 0.5625 (  1759 PWs)   bands (ev):

    -9.0329  -9.0142  -9.0115  -8.9647  -8.9612  -1.6141   1.3414   5.8632
     6.6049  10.1609  10.6613  11.6419

          k = 0.3125 0.4375 0.6875 (  1763 PWs)   bands (ev):

    -9.0330  -9.0134  -9.0076  -8.9669  -8.9608  -1.2621   1.1929   5.0737
     6.1667   9.9543  11.0873  12.5346

          k = 0.3125 0.5625 0.5625 (  1758 PWs)   bands (ev):

    -9.0327  -9.0137  -9.0107  -8.9641  -8.9619  -1.3859   1.1022   5.5430
     6.5649   9.8988  11.1932  11.5381

          k = 0.4375 0.4375 0.4375 (  1760 PWs)   bands (ev):

    -9.0334  -9.0144  -9.0144  -8.9620  -8.9620  -1.7398   1.2407   6.8879
     6.8880   9.5009  10.9291  10.9295

          k = 0.4375 0.4375 0.5625 (  1757 PWs)   bands (ev):

    -9.0333  -9.0141  -9.0131  -8.9627  -8.9614  -1.5092   0.9991   6.4696
     6.7324   9.7968  10.7705  11.1072

     the Fermi energy is     5.5217 ev

!    total energy              =    -317.34914975 Ry
     total all-electron energy =     -4373.656592 Ry
     estimated scf accuracy    <       0.00000086 Ry
     smearing contrib. (-TS)   =      -0.00132989 Ry
     internal energy E=F+TS    =    -317.34781986 Ry

     The total energy is F=E-TS. E is the sum of the following terms:
     one-electron contribution =    -124.51856181 Ry
     hartree contribution      =      75.76132762 Ry
     xc contribution           =     -40.61880184 Ry
     ewald contribution        =     -82.24853886 Ry
     one-center paw contrib.   =    -145.72324498 Ry

     convergence has been achieved in  13 iterations

     Forces acting on atoms (cartesian axes, Ry/au):

     atom    1 type  2   force =     0.00000000   -0.00000000    0.00000000
     atom    2 type  1   force =     0.00000000    0.00000000   -0.00000000

     Total force =     0.000000     Total SCF correction =     0.000000


     Computing stress (Cartesian axis) and pressure

          total   stress  (Ry/bohr**3)                   (kbar)     P=       70.72
   0.00048076  -0.00000000  -0.00000000           70.72       -0.00       -0.00
  -0.00000000   0.00048076   0.00000000           -0.00       70.72        0.00
  -0.00000000   0.00000000   0.00048076           -0.00        0.00       70.72


     Writing all to output data dir /home/nico-sachs/source/q-e/tempdir/al.save/ :
     XML data file, charge density, pseudopotentials, collected wavefunctions

     init_run     :      1.86s CPU      1.94s WALL (       1 calls)
     electrons    :     74.51s CPU     76.78s WALL (       1 calls)
     forces       :      0.43s CPU      0.45s WALL (       1 calls)
     stress       :      1.90s CPU      1.98s WALL (       1 calls)

     Called by init_run:
     wfcinit      :      0.91s CPU      0.91s WALL (       1 calls)
     potinit      :      0.34s CPU      0.38s WALL (       1 calls)
     hinit0       :      0.54s CPU      0.54s WALL (       1 calls)

     Called by electrons:
     c_bands      :     64.23s CPU     65.16s WALL (      14 calls)
     sum_band     :      4.96s CPU      5.42s WALL (      14 calls)
     v_of_rho     :      0.19s CPU      0.20s WALL (      14 calls)
     newd         :      0.84s CPU      1.19s WALL (      14 calls)
     PAW_pot      :      4.63s CPU      5.21s WALL (      14 calls)
     mix_rho      :      0.02s CPU      0.02s WALL (      14 calls)

     Called by c_bands:
     init_us_2    :      0.89s CPU      0.90s WALL (    1860 calls)
     ccgdiagg     :     55.79s CPU     56.67s WALL (     840 calls)
     wfcrot       :      8.78s CPU      8.83s WALL (     780 calls)

     Called by *cgdiagg:
     h_psi        :     41.84s CPU     42.45s WALL (   47913 calls)
     s_psi        :     10.71s CPU     10.87s WALL (   95046 calls)

     Called by h_psi:
     h_psi:calbec :      7.51s CPU      7.61s WALL (   47913 calls)
     vloc_psi     :     28.14s CPU     28.58s WALL (   47913 calls)
                                        0.00s GPU  (   47913 calls)
     add_vuspsi   :      5.84s CPU      5.92s WALL (   47913 calls)
     hs_1psi      :     40.25s CPU     40.90s WALL (   47133 calls)
     s_1psi       :     11.62s CPU     11.78s WALL (   47133 calls)

     General routines
     calbec       :     16.03s CPU     16.24s WALL (   96906 calls)
     fft          :      0.25s CPU      0.25s WALL (     180 calls)
     ffts         :      0.01s CPU      0.01s WALL (      14 calls)
     fftw         :     26.30s CPU     26.68s WALL (  123186 calls)

     Parallel routines

     PWSCF        :   1m18.89s CPU   1m21.39s WALL


   This run was terminated on:  15:52:40  26Jan2026            

=------------------------------------------------------------------------------=
   JOB DONE.
=------------------------------------------------------------------------------=
