
     Program PWSCF v.7.5 starts on 27Jan2026 at 15:35:44 

     This program is part of the open-source Quantum ESPRESSO suite
     for quantum simulation of materials; please cite
         "P. Giannozzi et al., J. Phys.:Condens. Matter 21 395502 (2009);
         "P. Giannozzi et al., J. Phys.:Condens. Matter 29 465901 (2017);
         "P. Giannozzi et al., J. Chem. Phys. 152 154105 (2020);
          URL http://www.quantum-espresso.org", 
     in publications or presentations arising from this work. More details at
     http://www.quantum-espresso.org/quote

     Parallel version (MPI), running on     4 processors

     MPI processes distributed on     1 nodes
     23241 MiB available memory on the printing compute node when the environment starts

     Waiting for input...
     Reading input from standard input

     Current dimensions of program PWSCF are:
     Max number of different atomic species (ntypx) = 10
     Max number of k-points (npk) =  40000
     Max angular momentum in pseudopotentials (lmaxx) =  4
     file Ga.pbe-dn-kjpaw_psl.1.0.0.UPF: wavefunction(s)  4S renormalized
     Message from routine set_cutoff:
     ecutrho < 4*ecutwfc, are you sure?

     R & G space division:  proc/nbgrp/npool/nimage =       4
     Subspace diagonalization in iterative solution of the eigenvalue problem:
     a serial algorithm will be used


     Parallelization info
     --------------------
     sticks:   dense  smooth     PW     G-vecs:    dense   smooth      PW
     Min         250     250     78                10432    10432    1866
     Max         251     251     79                10439    10439    1873
     Sum        1003    1003    313                41745    41745    7475

     Using Slab Decomposition



     bravais-lattice index     =            4
     lattice parameter (alat)  =       6.0263  a.u.
     unit-cell volume          =     308.1662 (a.u.)^3
     number of atoms/cell      =            4
     number of atomic types    =            2
     number of electrons       =        36.00
     number of Kohn-Sham states=           18
     kinetic-energy cutoff     =     110.0000  Ry
     charge density cutoff     =     400.0000  Ry
     scf convergence threshold =      1.0E-06
     mixing beta               =       0.7000
     number of iterations used =            8  plain     mixing
     Exchange-correlation= PBE
                           (   1   4   3   4   0   0   0)

     celldm(1)=   6.026337  celldm(2)=   0.000000  celldm(3)=   1.625902
     celldm(4)=   0.000000  celldm(5)=   0.000000  celldm(6)=   0.000000

     crystal axes: (cart. coord. in units of alat)
               a(1) = (   1.000000   0.000000   0.000000 )  
               a(2) = (  -0.500000   0.866025   0.000000 )  
               a(3) = (   0.000000   0.000000   1.625902 )  

     reciprocal axes: (cart. coord. in units 2 pi/alat)
               b(1) = (  1.000000  0.577350 -0.000000 )  
               b(2) = (  0.000000  1.154701  0.000000 )  
               b(3) = (  0.000000 -0.000000  0.615043 )  


     PseudoPot. # 1 for Ga read from file:
     /home/nico-sachs/source/q-e/SSSP_1.3.0_PBE_efficiency/Ga.pbe-dn-kjpaw_psl.1.0.0.UPF
     MD5 check sum: a27b4342b1af7e5f338de752e9ed7044
     Pseudo is Projector augmented-wave + core cor, Zval = 13.0
     Generated using "atomic" code by A. Dal Corso  v.5.1
     Shape of augmentation charge: PSQ
     Using radial grid of 1205 points,  6 beta functions with: 
                l(1) =   0
                l(2) =   0
                l(3) =   1
                l(4) =   1
                l(5) =   2
                l(6) =   2
     Q(r) pseudized with 0 coefficients 


     PseudoPot. # 2 for N  read from file:
     /home/nico-sachs/source/q-e/SSSP_1.3.0_PBE_efficiency/N.pbe-n-radius_5.UPF
     MD5 check sum: 16739722b17309cd8fe442a2ace49922
     Pseudo is Ultrasoft + core correction, Zval =  5.0
     Generated using "atomic" code by A. Dal Corso  v.5.1
     Using radial grid of 1085 points,  4 beta functions with: 
                l(1) =   0
                l(2) =   0
                l(3) =   1
                l(4) =   1
     Q(r) pseudized with 0 coefficients 


     atomic species   valence    mass     pseudopotential
     Ga               13.00    69.72300     Ga( 1.00)
     N                 5.00    14.00700     N ( 1.00)

     12 Sym. Ops. (no inversion) found ( 6 have fractional translation)



   Cartesian axes

     site n.     atom                  positions (alat units)
         1        Ga     tau(   1) = (  -0.0000000   0.5773503   0.0000000  )
         2        Ga     tau(   2) = (   0.5000000   0.2886751   0.8129508  )
         3        N      tau(   3) = (  -0.0000000   0.5773503   0.6097131  )
         4        N      tau(   4) = (   0.5000000   0.2886751   1.4226638  )

     number of k points=    21
                       cart. coord. in units 2pi/alat
        k(    1) = (   0.0000000   0.0000000   0.0000000), wk =   0.0138889
        k(    2) = (   0.0000000   0.0000000   0.1537608), wk =   0.0277778
        k(    3) = (   0.0000000   0.0000000  -0.3075217), wk =   0.0138889
        k(    4) = (   0.0000000   0.1924501   0.0000000), wk =   0.0833333
        k(    5) = (   0.0000000   0.1924501   0.1537608), wk =   0.1666667
        k(    6) = (   0.0000000   0.1924501  -0.3075217), wk =   0.0833333
        k(    7) = (   0.0000000   0.3849002   0.0000000), wk =   0.0833333
        k(    8) = (   0.0000000   0.3849002   0.1537608), wk =   0.1666667
        k(    9) = (   0.0000000   0.3849002  -0.3075217), wk =   0.0833333
        k(   10) = (   0.0000000  -0.5773503   0.0000000), wk =   0.0416667
        k(   11) = (   0.0000000  -0.5773503   0.1537608), wk =   0.0833333
        k(   12) = (   0.0000000  -0.5773503  -0.3075217), wk =   0.0416667
        k(   13) = (   0.1666667   0.2886751   0.0000000), wk =   0.0833333
        k(   14) = (   0.1666667   0.2886751   0.1537608), wk =   0.1666667
        k(   15) = (   0.1666667   0.2886751  -0.3075217), wk =   0.0833333
        k(   16) = (   0.1666667   0.4811252   0.0000000), wk =   0.1666667
        k(   17) = (   0.1666667   0.4811252   0.1537608), wk =   0.3333333
        k(   18) = (   0.1666667   0.4811252  -0.3075217), wk =   0.1666667
        k(   19) = (   0.3333333   0.5773503   0.0000000), wk =   0.0277778
        k(   20) = (   0.3333333   0.5773503   0.1537608), wk =   0.0555556
        k(   21) = (   0.3333333   0.5773503  -0.3075217), wk =   0.0277778

     Dense  grid:    41745 G-vectors     FFT dimensions: (  40,  40,  64)

     Estimated max dynamical RAM per process >      51.91 MB

     Estimated total dynamical RAM >     207.62 MB

     Initial potential from superposition of free atoms

     starting charge      35.9941, renormalised to      36.0000
     Starting wfcs are   26 randomized atomic wfcs
     Checking if some PAW data can be deallocated... 

     total cpu time spent up to now is        1.7 secs

     Self-consistent Calculation

     iteration #  1     ecut=   110.00 Ry     beta= 0.70
     CG style diagonalization
     ethr =  1.00E-02,  avg # of iterations =  2.0

     total cpu time spent up to now is        3.5 secs

     total energy              =    -595.58015077 Ry
     estimated scf accuracy    <       1.11408269 Ry

     iteration #  2     ecut=   110.00 Ry     beta= 0.70
     CG style diagonalization
     ethr =  3.09E-03,  avg # of iterations =  4.8

     total cpu time spent up to now is        7.1 secs

     total energy              =    -596.03162411 Ry
     estimated scf accuracy    <       1.07406411 Ry

     iteration #  3     ecut=   110.00 Ry     beta= 0.70
     CG style diagonalization
     ethr =  2.98E-03,  avg # of iterations =  3.8

     total cpu time spent up to now is       10.1 secs

     total energy              =    -596.21873240 Ry
     estimated scf accuracy    <       0.00832501 Ry

     iteration #  4     ecut=   110.00 Ry     beta= 0.70
     CG style diagonalization
     c_bands:  1 eigenvalues not converged
     c_bands:  1 eigenvalues not converged
     c_bands:  1 eigenvalues not converged
     c_bands:  2 eigenvalues not converged
     c_bands:  1 eigenvalues not converged
     c_bands:  1 eigenvalues not converged
     c_bands:  1 eigenvalues not converged
     c_bands:  1 eigenvalues not converged
     c_bands:  1 eigenvalues not converged
     ethr =  2.31E-05,  avg # of iterations = 10.0

     total cpu time spent up to now is       18.0 secs

     total energy              =    -596.36044152 Ry
     estimated scf accuracy    <       0.03283240 Ry

     iteration #  5     ecut=   110.00 Ry     beta= 0.70
     CG style diagonalization
     ethr =  2.31E-05,  avg # of iterations =  4.2

     total cpu time spent up to now is       21.4 secs

     total energy              =    -596.36327901 Ry
     estimated scf accuracy    <       0.05598239 Ry

     iteration #  6     ecut=   110.00 Ry     beta= 0.70
     CG style diagonalization
     ethr =  2.31E-05,  avg # of iterations =  4.8

     total cpu time spent up to now is       25.3 secs

     total energy              =    -596.36678429 Ry
     estimated scf accuracy    <       0.04003901 Ry

     iteration #  7     ecut=   110.00 Ry     beta= 0.70
     CG style diagonalization
     ethr =  2.31E-05,  avg # of iterations =  3.7

     total cpu time spent up to now is       28.4 secs

     total energy              =    -596.36782659 Ry
     estimated scf accuracy    <       0.01056741 Ry

     iteration #  8     ecut=   110.00 Ry     beta= 0.70
     CG style diagonalization
     ethr =  2.31E-05,  avg # of iterations =  3.1

     total cpu time spent up to now is       31.0 secs

     total energy              =    -596.36755401 Ry
     estimated scf accuracy    <       0.00622066 Ry

     iteration #  9     ecut=   110.00 Ry     beta= 0.70
     CG style diagonalization
     ethr =  1.73E-05,  avg # of iterations =  3.1

     total cpu time spent up to now is       33.6 secs

     total energy              =    -596.36790826 Ry
     estimated scf accuracy    <       0.00081230 Ry

     iteration # 10     ecut=   110.00 Ry     beta= 0.70
     CG style diagonalization
     ethr =  2.26E-06,  avg # of iterations =  7.3

     total cpu time spent up to now is       39.3 secs

     total energy              =    -596.36973395 Ry
     estimated scf accuracy    <       0.00059951 Ry

     iteration # 11     ecut=   110.00 Ry     beta= 0.70
     CG style diagonalization
     ethr =  1.67E-06,  avg # of iterations =  4.1

     total cpu time spent up to now is       42.6 secs

     total energy              =    -596.36979463 Ry
     estimated scf accuracy    <       0.00100618 Ry

     iteration # 12     ecut=   110.00 Ry     beta= 0.70
     CG style diagonalization
     ethr =  1.67E-06,  avg # of iterations =  4.7

     total cpu time spent up to now is       46.3 secs

     total energy              =    -596.36963206 Ry
     estimated scf accuracy    <       0.00250715 Ry

     iteration # 13     ecut=   110.00 Ry     beta= 0.70
     CG style diagonalization
     ethr =  1.67E-06,  avg # of iterations =  4.0

     total cpu time spent up to now is       49.5 secs

     total energy              =    -596.36982292 Ry
     estimated scf accuracy    <       0.00004111 Ry

     iteration # 14     ecut=   110.00 Ry     beta= 0.70
     CG style diagonalization
     ethr =  1.14E-07,  avg # of iterations =  8.1

     total cpu time spent up to now is       55.8 secs

     total energy              =    -596.36998484 Ry
     estimated scf accuracy    <       0.00009880 Ry

     iteration # 15     ecut=   110.00 Ry     beta= 0.70
     CG style diagonalization
     ethr =  1.14E-07,  avg # of iterations =  4.5

     total cpu time spent up to now is       59.4 secs

     total energy              =    -596.36999974 Ry
     estimated scf accuracy    <       0.00011777 Ry

     iteration # 16     ecut=   110.00 Ry     beta= 0.70
     CG style diagonalization
     ethr =  1.14E-07,  avg # of iterations =  3.3

     total cpu time spent up to now is       62.1 secs

     total energy              =    -596.36996410 Ry
     estimated scf accuracy    <       0.00010116 Ry

     iteration # 17     ecut=   110.00 Ry     beta= 0.70
     CG style diagonalization
     ethr =  1.14E-07,  avg # of iterations =  3.7

     total cpu time spent up to now is       65.1 secs

     total energy              =    -596.36998177 Ry
     estimated scf accuracy    <       0.00002842 Ry

     iteration # 18     ecut=   110.00 Ry     beta= 0.70
     CG style diagonalization
     ethr =  7.89E-08,  avg # of iterations =  3.7

     total cpu time spent up to now is       68.3 secs

     total energy              =    -596.36995330 Ry
     estimated scf accuracy    <       0.00005514 Ry

     iteration # 19     ecut=   110.00 Ry     beta= 0.70
     CG style diagonalization
     ethr =  7.89E-08,  avg # of iterations =  4.3

     total cpu time spent up to now is       71.7 secs

     total energy              =    -596.36996121 Ry
     estimated scf accuracy    <       0.00000410 Ry

     iteration # 20     ecut=   110.00 Ry     beta= 0.70
     CG style diagonalization
     ethr =  1.14E-08,  avg # of iterations =  7.8

     total cpu time spent up to now is       77.8 secs

     total energy              =    -596.36997401 Ry
     estimated scf accuracy    <       0.00000574 Ry

     iteration # 21     ecut=   110.00 Ry     beta= 0.70
     CG style diagonalization
     ethr =  1.14E-08,  avg # of iterations =  4.5

     total cpu time spent up to now is       81.3 secs

     total energy              =    -596.36997650 Ry
     estimated scf accuracy    <       0.00000814 Ry

     iteration # 22     ecut=   110.00 Ry     beta= 0.70
     CG style diagonalization
     ethr =  1.14E-08,  avg # of iterations =  3.7

     total cpu time spent up to now is       84.3 secs

     total energy              =    -596.36997907 Ry
     estimated scf accuracy    <       0.00000740 Ry

     iteration # 23     ecut=   110.00 Ry     beta= 0.70
     CG style diagonalization
     ethr =  1.14E-08,  avg # of iterations =  3.4

     total cpu time spent up to now is       87.0 secs

     total energy              =    -596.36998055 Ry
     estimated scf accuracy    <       0.00001115 Ry

     iteration # 24     ecut=   110.00 Ry     beta= 0.70
     CG style diagonalization
     ethr =  1.14E-08,  avg # of iterations =  3.3

     total cpu time spent up to now is       89.7 secs

     total energy              =    -596.36997925 Ry
     estimated scf accuracy    <       0.00001597 Ry

     iteration # 25     ecut=   110.00 Ry     beta= 0.70
     CG style diagonalization
     ethr =  1.14E-08,  avg # of iterations =  3.1

     total cpu time spent up to now is       92.4 secs

     total energy              =    -596.36997621 Ry
     estimated scf accuracy    <       0.00001111 Ry

     iteration # 26     ecut=   110.00 Ry     beta= 0.70
     CG style diagonalization
     ethr =  1.14E-08,  avg # of iterations =  3.5

     total cpu time spent up to now is       95.2 secs

     total energy              =    -596.36997727 Ry
     estimated scf accuracy    <       0.00000138 Ry

     iteration # 27     ecut=   110.00 Ry     beta= 0.70
     CG style diagonalization
     ethr =  3.84E-09,  avg # of iterations =  7.0

     total cpu time spent up to now is      100.6 secs

     total energy              =    -596.36997821 Ry
     estimated scf accuracy    <       0.00001175 Ry

     iteration # 28     ecut=   110.00 Ry     beta= 0.70
     CG style diagonalization
     ethr =  3.84E-09,  avg # of iterations =  3.9

     total cpu time spent up to now is      103.8 secs

     total energy              =    -596.36997609 Ry
     estimated scf accuracy    <       0.00000573 Ry

     iteration # 29     ecut=   110.00 Ry     beta= 0.70
     CG style diagonalization
     ethr =  3.84E-09,  avg # of iterations =  4.5

     total cpu time spent up to now is      107.3 secs

     End of self-consistent calculation

          k = 0.0000 0.0000 0.0000 (  5955 PWs)   bands (ev):

    -6.2584  -5.3539  -3.7684  -3.7475  -3.7475  -3.6857  -3.6857  -3.4999
    -3.4999  -3.4006  -3.4006  -2.1410   2.6385   8.6784   8.6784   9.6631
     9.7253   9.7253

          k = 0.0000 0.0000 0.1538 (  5943 PWs)   bands (ev):

    -6.0830  -5.4257  -3.7438  -3.7438  -3.7111  -3.6997  -3.6997  -3.4804
    -3.4804  -3.4106  -3.4106  -2.6933   3.6927   8.1701   8.8250   8.8250
     9.5653   9.5653

          k = 0.0000 0.0000-0.3075 (  5996 PWs)   bands (ev):

    -5.6984  -5.6984  -3.7267  -3.7267  -3.7267  -3.7267  -3.4410  -3.4410
    -3.4410  -3.4410  -3.4134  -3.4134   5.8625   5.8625   9.1883   9.1883
     9.1883   9.1883

          k = 0.0000 0.1925 0.0000 (  5975 PWs)   bands (ev):

    -6.0073  -5.2961  -3.7355  -3.7139  -3.6709  -3.6358  -3.6352  -3.5210
    -3.4986  -3.4368  -3.3952  -1.9561   3.0228   7.0022   8.0045   8.1716
     9.3761   9.4888

          k = 0.0000 0.1925 0.1538 (  5987 PWs)   bands (ev):

    -5.8569  -5.3448  -3.7261  -3.7061  -3.6773  -3.6502  -3.6111  -3.4834
    -3.4805  -3.4372  -3.4076  -2.4697   3.9345   7.1180   7.4484   8.3483
     9.0107   9.2772

          k = 0.0000 0.1925-0.3075 (  5980 PWs)   bands (ev):

    -5.5455  -5.5455  -3.7015  -3.7015  -3.6817  -3.6817  -3.5244  -3.5244
    -3.4413  -3.4413  -3.1736  -3.1736   5.6983   5.6983   8.0826   8.0826
     8.7955   8.7955

          k = 0.0000 0.3849 0.0000 (  6018 PWs)   bands (ev):

    -5.5489  -5.2185  -3.6982  -3.6791  -3.6011  -3.5382  -3.5363  -3.5025
    -3.4540  -3.3842  -3.0801  -1.5934   3.7561   4.8349   5.8323   7.3415
     8.4332   8.9907

          k = 0.0000 0.3849 0.1538 (  5992 PWs)   bands (ev):

    -5.4645  -5.2315  -3.7057  -3.6571  -3.6331  -3.5547  -3.5376  -3.4858
    -3.4468  -3.3981  -2.9632  -1.9493   3.7676   5.0288   6.0363   7.5545
     8.5353   8.7131

          k = 0.0000 0.3849-0.3075 (  5998 PWs)   bands (ev):

    -5.3107  -5.3107  -3.6895  -3.6895  -3.6043  -3.6043  -3.5038  -3.5038
    -3.4255  -3.4255  -2.5682  -2.5682   4.2516   4.2516   7.6316   7.6316
     8.1024   8.1024

          k = 0.0000-0.5774 0.0000 (  6040 PWs)   bands (ev):

    -5.3714  -5.1977  -3.7013  -3.6773  -3.5833  -3.5397  -3.4921  -3.4858
    -3.4103  -3.3753  -2.2572  -1.7163   3.2791   4.4585   5.4919   6.9801
     7.4892   8.7472

          k = 0.0000-0.5774 0.1538 (  6010 PWs)   bands (ev):

    -5.3205  -5.1977  -3.7138  -3.6484  -3.6257  -3.5428  -3.5140  -3.4455
    -3.4089  -3.3877  -2.2015  -1.8118   3.0116   3.8637   6.4148   7.2060
     8.0180   8.4458

          k = 0.0000-0.5774-0.3075 (  6000 PWs)   bands (ev):

    -5.2329  -5.2329  -3.7033  -3.7033  -3.5785  -3.5785  -3.4694  -3.4694
    -3.4029  -3.4029  -2.0296  -2.0296   3.1285   3.1285   7.7895   7.7895
     7.8155   7.8155

          k = 0.1667 0.2887 0.0000 (  5998 PWs)   bands (ev):

    -5.6522  -5.2335  -3.7029  -3.6802  -3.6118  -3.5878  -3.5398  -3.4791
    -3.4682  -3.4220  -3.2608  -1.6611   3.6600   5.6782   6.0551   7.3247
     8.7159   8.8010

          k = 0.1667 0.2887 0.1538 (  6003 PWs)   bands (ev):

    -5.5500  -5.2537  -3.6856  -3.6824  -3.6261  -3.6125  -3.5187  -3.5128
    -3.4455  -3.4293  -3.1529  -2.0807   4.0802   5.7182   6.2990   7.2867
     8.4074   8.7908

          k = 0.1667 0.2887-0.3075 (  5988 PWs)   bands (ev):

    -5.3583  -5.3583  -3.6655  -3.6655  -3.6381  -3.6381  -3.5345  -3.5345
    -3.4307  -3.4307  -2.7575  -2.7575   4.8870   4.8870   7.6060   7.6060
     7.9164   7.9164

          k = 0.1667 0.4811 0.0000 (  6019 PWs)   bands (ev):

    -5.3604  -5.2027  -3.7240  -3.6417  -3.5539  -3.5389  -3.5178  -3.4975
    -3.4359  -3.4018  -2.4206  -1.5081   3.7169   4.6716   5.5239   6.0984
     7.6981   7.9655

          k = 0.1667 0.4811 0.1538 (  6015 PWs)   bands (ev):

    -5.3106  -5.1999  -3.6937  -3.6588  -3.6046  -3.5406  -3.5187  -3.4765
    -3.4283  -3.4184  -2.3263  -1.6800   3.4521   4.2391   5.9659   6.7332
     7.5273   8.2189

          k = 0.1667 0.4811-0.3075 (  6016 PWs)   bands (ev):

    -5.2281  -5.2281  -3.6683  -3.6683  -3.5984  -3.5984  -3.4968  -3.4968
    -3.4209  -3.4209  -2.0440  -2.0440   3.5814   3.5814   6.6759   6.6759
     8.0608   8.0608

          k = 0.3333 0.5774 0.0000 (  6024 PWs)   bands (ev):

    -5.2382  -5.2382  -3.7530  -3.5462  -3.5462  -3.5280  -3.5142  -3.5142
    -3.4673  -3.4200  -1.7220  -1.7220   4.3954   4.3954   4.4464   6.7168
     6.7168   7.0341

          k = 0.3333 0.5774 0.1538 (  6012 PWs)   bands (ev):

    -5.2156  -5.2156  -3.7129  -3.5996  -3.5996  -3.5368  -3.4736  -3.4736
    -3.4717  -3.4558  -1.7164  -1.7164   3.9078   3.9078   4.7446   6.5286
     7.5196   7.5196

          k = 0.3333 0.5774-0.3075 (  6000 PWs)   bands (ev):

    -5.1924  -5.1924  -3.6320  -3.6320  -3.6141  -3.6141  -3.4790  -3.4790
    -3.4545  -3.4545  -1.7105  -1.7105   3.5642   3.5642   5.5443   5.5443
     8.2340   8.2340

     highest occupied level (ev):     9.7253

!    total energy              =    -596.36997682 Ry
     estimated scf accuracy    <       0.00000024 Ry

     The total energy is the sum of the following terms:
     one-electron contribution =    -181.37761931 Ry
     hartree contribution      =     130.14830209 Ry
     xc contribution           =     -87.87903628 Ry
     ewald contribution        =    -233.28276133 Ry
     one-center paw contrib.   =    -223.97886199 Ry

     convergence has been achieved in  29 iterations

     Forces acting on atoms (cartesian axes, Ry/au):

     atom    1 type  1   force =     0.00000000   -0.00000000   -0.00481424
     atom    2 type  1   force =    -0.00000000    0.00000000   -0.00481424
     atom    3 type  2   force =     0.00000000    0.00000000    0.00481424
     atom    4 type  2   force =    -0.00000000   -0.00000000    0.00481424

     Total force =     0.009628     Total SCF correction =     0.000012


     Computing stress (Cartesian axis) and pressure

          total   stress  (Ry/bohr**3)                   (kbar)     P=       53.09
   0.00032230  -0.00000000   0.00000000           47.41       -0.00        0.00
  -0.00000000   0.00032230   0.00000000           -0.00       47.41        0.00
   0.00000000   0.00000000   0.00043815            0.00        0.00       64.45


     Writing all to output data dir /home/nico-sachs/source/q-e/tempdir/gan.save/ :
     XML data file, charge density, pseudopotentials, collected wavefunctions

     init_run     :      1.43s CPU      1.50s WALL (       1 calls)
     electrons    :    102.83s CPU    105.67s WALL (       1 calls)
     forces       :      0.39s CPU      0.39s WALL (       1 calls)
     stress       :      1.49s CPU      1.50s WALL (       1 calls)

     Called by init_run:
     wfcinit      :      0.73s CPU      0.75s WALL (       1 calls)
     potinit      :      0.25s CPU      0.28s WALL (       1 calls)
     hinit0       :      0.34s CPU      0.34s WALL (       1 calls)

     Called by electrons:
     c_bands      :     87.66s CPU     90.30s WALL (      29 calls)
     sum_band     :      6.68s CPU      6.88s WALL (      29 calls)
     v_of_rho     :      0.33s CPU      0.34s WALL (      30 calls)
     newd         :      1.25s CPU      1.26s WALL (      30 calls)
     PAW_pot      :      7.05s CPU      7.09s WALL (      30 calls)
     mix_rho      :      0.10s CPU      0.10s WALL (      29 calls)

     Called by c_bands:
     init_us_2    :      0.87s CPU      0.89s WALL (    1281 calls)
     ccgdiagg     :     73.63s CPU     75.86s WALL (     609 calls)
     wfcrot       :     14.05s CPU     14.46s WALL (     609 calls)

     Called by *cgdiagg:
     h_psi        :     49.93s CPU     51.84s WALL (   39815 calls)
     s_psi        :     15.52s CPU     15.84s WALL (   79021 calls)

     Called by h_psi:
     h_psi:calbec :     12.67s CPU     13.17s WALL (   39815 calls)
     vloc_psi     :     27.70s CPU     28.80s WALL (   39815 calls)
                                        0.00s GPU  (   39815 calls)
     add_vuspsi   :      9.07s CPU      9.39s WALL (   39815 calls)
     hs_1psi      :     47.66s CPU     49.40s WALL (   39206 calls)
     s_1psi       :     17.06s CPU     17.40s WALL (   39206 calls)

     General routines
     calbec       :     25.82s CPU     26.60s WALL (   79987 calls)
     fft          :      0.30s CPU      0.31s WALL (     355 calls)
     ffts         :      0.01s CPU      0.01s WALL (      29 calls)
     fftw         :     25.90s CPU     26.99s WALL (  111634 calls)

     Parallel routines

     PWSCF        :   1m46.33s CPU   1m49.31s WALL


   This run was terminated on:  15:37:34  27Jan2026            

=------------------------------------------------------------------------------=
   JOB DONE.
=------------------------------------------------------------------------------=
