
     Program PWSCF v.7.5 starts on 27Jan2026 at 15:28:46 

     This program is part of the open-source Quantum ESPRESSO suite
     for quantum simulation of materials; please cite
         "P. Giannozzi et al., J. Phys.:Condens. Matter 21 395502 (2009);
         "P. Giannozzi et al., J. Phys.:Condens. Matter 29 465901 (2017);
         "P. Giannozzi et al., J. Chem. Phys. 152 154105 (2020);
          URL http://www.quantum-espresso.org", 
     in publications or presentations arising from this work. More details at
     http://www.quantum-espresso.org/quote

     Parallel version (MPI), running on     1 processors

     MPI processes distributed on     1 nodes
     23062 MiB available memory on the printing compute node when the environment starts

     Waiting for input...
     Reading input from standard input

     Current dimensions of program PWSCF are:
     Max number of different atomic species (ntypx) = 10
     Max number of k-points (npk) =  40000
     Max angular momentum in pseudopotentials (lmaxx) =  4
     file Ga.pbe-dn-kjpaw_psl.1.0.0.UPF: wavefunction(s)  4S renormalized

     Subspace diagonalization in iterative solution of the eigenvalue problem:
     a serial algorithm will be used


     G-vector sticks info
     --------------------
     sticks:   dense  smooth     PW     G-vecs:    dense   smooth      PW
     Sum        1003     433    127                41745    11585    1985

     Using Slab Decomposition



     bravais-lattice index     =            4
     lattice parameter (alat)  =       6.0263  a.u.
     unit-cell volume          =     308.1662 (a.u.)^3
     number of atoms/cell      =            4
     number of atomic types    =            2
     number of electrons       =        36.00
     number of Kohn-Sham states=           18
     kinetic-energy cutoff     =      42.5000  Ry
     charge density cutoff     =     400.0000  Ry
     scf convergence threshold =      1.0E-06
     mixing beta               =       0.7000
     number of iterations used =            8  plain     mixing
     Exchange-correlation= PBE
                           (   1   4   3   4   0   0   0)

     celldm(1)=   6.026337  celldm(2)=   0.000000  celldm(3)=   1.625902
     celldm(4)=   0.000000  celldm(5)=   0.000000  celldm(6)=   0.000000

     crystal axes: (cart. coord. in units of alat)
               a(1) = (   1.000000   0.000000   0.000000 )  
               a(2) = (  -0.500000   0.866025   0.000000 )  
               a(3) = (   0.000000   0.000000   1.625902 )  

     reciprocal axes: (cart. coord. in units 2 pi/alat)
               b(1) = (  1.000000  0.577350 -0.000000 )  
               b(2) = (  0.000000  1.154701  0.000000 )  
               b(3) = (  0.000000 -0.000000  0.615043 )  


     PseudoPot. # 1 for Ga read from file:
     /home/nico-sachs/source/q-e/SSSP_1.3.0_PBE_efficiency/Ga.pbe-dn-kjpaw_psl.1.0.0.UPF
     MD5 check sum: a27b4342b1af7e5f338de752e9ed7044
     Pseudo is Projector augmented-wave + core cor, Zval = 13.0
     Generated using "atomic" code by A. Dal Corso  v.5.1
     Shape of augmentation charge: PSQ
     Using radial grid of 1205 points,  6 beta functions with: 
                l(1) =   0
                l(2) =   0
                l(3) =   1
                l(4) =   1
                l(5) =   2
                l(6) =   2
     Q(r) pseudized with 0 coefficients 


     PseudoPot. # 2 for N  read from file:
     /home/nico-sachs/source/q-e/SSSP_1.3.0_PBE_efficiency/N.pbe-n-radius_5.UPF
     MD5 check sum: 16739722b17309cd8fe442a2ace49922
     Pseudo is Ultrasoft + core correction, Zval =  5.0
     Generated using "atomic" code by A. Dal Corso  v.5.1
     Using radial grid of 1085 points,  4 beta functions with: 
                l(1) =   0
                l(2) =   0
                l(3) =   1
                l(4) =   1
     Q(r) pseudized with 0 coefficients 


     atomic species   valence    mass     pseudopotential
     Ga               13.00    69.72300     Ga( 1.00)
     N                 5.00    14.00700     N ( 1.00)

     12 Sym. Ops. (no inversion) found ( 6 have fractional translation)



   Cartesian axes

     site n.     atom                  positions (alat units)
         1        Ga     tau(   1) = (  -0.0000000   0.5773503   0.0000000  )
         2        Ga     tau(   2) = (   0.5000000   0.2886751   0.8129508  )
         3        N      tau(   3) = (  -0.0000000   0.5773503   0.6097131  )
         4        N      tau(   4) = (   0.5000000   0.2886751   1.4226638  )

     number of k points=    21
                       cart. coord. in units 2pi/alat
        k(    1) = (   0.0000000   0.0000000   0.0000000), wk =   0.0138889
        k(    2) = (   0.0000000   0.0000000   0.1537608), wk =   0.0277778
        k(    3) = (   0.0000000   0.0000000  -0.3075217), wk =   0.0138889
        k(    4) = (   0.0000000   0.1924501   0.0000000), wk =   0.0833333
        k(    5) = (   0.0000000   0.1924501   0.1537608), wk =   0.1666667
        k(    6) = (   0.0000000   0.1924501  -0.3075217), wk =   0.0833333
        k(    7) = (   0.0000000   0.3849002   0.0000000), wk =   0.0833333
        k(    8) = (   0.0000000   0.3849002   0.1537608), wk =   0.1666667
        k(    9) = (   0.0000000   0.3849002  -0.3075217), wk =   0.0833333
        k(   10) = (   0.0000000  -0.5773503   0.0000000), wk =   0.0416667
        k(   11) = (   0.0000000  -0.5773503   0.1537608), wk =   0.0833333
        k(   12) = (   0.0000000  -0.5773503  -0.3075217), wk =   0.0416667
        k(   13) = (   0.1666667   0.2886751   0.0000000), wk =   0.0833333
        k(   14) = (   0.1666667   0.2886751   0.1537608), wk =   0.1666667
        k(   15) = (   0.1666667   0.2886751  -0.3075217), wk =   0.0833333
        k(   16) = (   0.1666667   0.4811252   0.0000000), wk =   0.1666667
        k(   17) = (   0.1666667   0.4811252   0.1537608), wk =   0.3333333
        k(   18) = (   0.1666667   0.4811252  -0.3075217), wk =   0.1666667
        k(   19) = (   0.3333333   0.5773503   0.0000000), wk =   0.0277778
        k(   20) = (   0.3333333   0.5773503   0.1537608), wk =   0.0555556
        k(   21) = (   0.3333333   0.5773503  -0.3075217), wk =   0.0277778

     Dense  grid:    41745 G-vectors     FFT dimensions: (  40,  40,  64)

     Smooth grid:    11585 G-vectors     FFT dimensions: (  25,  25,  48)

     Estimated max dynamical RAM per process >     166.53 MB

     Initial potential from superposition of free atoms

     starting charge      35.9941, renormalised to      36.0000
     Starting wfcs are   26 randomized atomic wfcs
     Checking if some PAW data can be deallocated... 

     total cpu time spent up to now is        2.3 secs

     Self-consistent Calculation

     iteration #  1     ecut=    42.50 Ry     beta= 0.70
     CG style diagonalization
     ethr =  1.00E-02,  avg # of iterations =  2.0

     total cpu time spent up to now is        4.0 secs

     total energy              =    -595.58364749 Ry
     estimated scf accuracy    <       1.10243392 Ry

     iteration #  2     ecut=    42.50 Ry     beta= 0.70
     CG style diagonalization
     ethr =  3.06E-03,  avg # of iterations =  4.6

     total cpu time spent up to now is        6.7 secs

     total energy              =    -595.98585299 Ry
     estimated scf accuracy    <       1.20601121 Ry

     iteration #  3     ecut=    42.50 Ry     beta= 0.70
     CG style diagonalization
     ethr =  3.06E-03,  avg # of iterations =  3.7

     total cpu time spent up to now is        8.9 secs

     total energy              =    -596.22065535 Ry
     estimated scf accuracy    <       0.00834995 Ry

     iteration #  4     ecut=    42.50 Ry     beta= 0.70
     CG style diagonalization
     c_bands:  1 eigenvalues not converged
     c_bands:  1 eigenvalues not converged
     c_bands:  1 eigenvalues not converged
     ethr =  2.32E-05,  avg # of iterations =  9.1

     total cpu time spent up to now is       13.3 secs

     total energy              =    -596.32964730 Ry
     estimated scf accuracy    <       0.01729543 Ry

     iteration #  5     ecut=    42.50 Ry     beta= 0.70
     CG style diagonalization
     ethr =  2.32E-05,  avg # of iterations =  3.1

     total cpu time spent up to now is       15.2 secs

     total energy              =    -596.33024281 Ry
     estimated scf accuracy    <       0.02587502 Ry

     iteration #  6     ecut=    42.50 Ry     beta= 0.70
     CG style diagonalization
     ethr =  2.32E-05,  avg # of iterations =  3.9

     total cpu time spent up to now is       17.4 secs

     total energy              =    -596.33151386 Ry
     estimated scf accuracy    <       0.04413728 Ry

     iteration #  7     ecut=    42.50 Ry     beta= 0.70
     CG style diagonalization
     ethr =  2.32E-05,  avg # of iterations =  3.1

     total cpu time spent up to now is       19.4 secs

     total energy              =    -596.33201047 Ry
     estimated scf accuracy    <       0.01257741 Ry

     iteration #  8     ecut=    42.50 Ry     beta= 0.70
     CG style diagonalization
     ethr =  2.32E-05,  avg # of iterations =  3.0

     total cpu time spent up to now is       21.2 secs

     total energy              =    -596.33148055 Ry
     estimated scf accuracy    <       0.01077203 Ry

     iteration #  9     ecut=    42.50 Ry     beta= 0.70
     CG style diagonalization
     ethr =  2.32E-05,  avg # of iterations =  3.0

     total cpu time spent up to now is       23.2 secs

     total energy              =    -596.33148006 Ry
     estimated scf accuracy    <       0.00082640 Ry

     iteration # 10     ecut=    42.50 Ry     beta= 0.70
     CG style diagonalization
     ethr =  2.30E-06,  avg # of iterations =  5.6

     total cpu time spent up to now is       26.3 secs

     total energy              =    -596.33224639 Ry
     estimated scf accuracy    <       0.00005097 Ry

     iteration # 11     ecut=    42.50 Ry     beta= 0.70
     CG style diagonalization
     ethr =  1.42E-07,  avg # of iterations =  9.4

     total cpu time spent up to now is       30.9 secs

     total energy              =    -596.33251907 Ry
     estimated scf accuracy    <       0.00004057 Ry

     iteration # 12     ecut=    42.50 Ry     beta= 0.70
     CG style diagonalization
     ethr =  1.13E-07,  avg # of iterations =  3.6

     total cpu time spent up to now is       33.0 secs

     total energy              =    -596.33254179 Ry
     estimated scf accuracy    <       0.00021141 Ry

     iteration # 13     ecut=    42.50 Ry     beta= 0.70
     CG style diagonalization
     ethr =  1.13E-07,  avg # of iterations =  3.2

     total cpu time spent up to now is       35.0 secs

     total energy              =    -596.33254191 Ry
     estimated scf accuracy    <       0.00001837 Ry

     iteration # 14     ecut=    42.50 Ry     beta= 0.70
     CG style diagonalization
     ethr =  5.10E-08,  avg # of iterations =  4.3

     total cpu time spent up to now is       37.5 secs

     total energy              =    -596.33254776 Ry
     estimated scf accuracy    <       0.00002021 Ry

     iteration # 15     ecut=    42.50 Ry     beta= 0.70
     CG style diagonalization
     ethr =  5.10E-08,  avg # of iterations =  3.1

     total cpu time spent up to now is       39.4 secs

     total energy              =    -596.33254511 Ry
     estimated scf accuracy    <       0.00001926 Ry

     iteration # 16     ecut=    42.50 Ry     beta= 0.70
     CG style diagonalization
     ethr =  5.10E-08,  avg # of iterations =  3.1

     total cpu time spent up to now is       41.4 secs

     total energy              =    -596.33254088 Ry
     estimated scf accuracy    <       0.00003089 Ry

     iteration # 17     ecut=    42.50 Ry     beta= 0.70
     CG style diagonalization
     ethr =  5.10E-08,  avg # of iterations =  3.6

     total cpu time spent up to now is       43.6 secs

     total energy              =    -596.33254184 Ry
     estimated scf accuracy    <       0.00001033 Ry

     iteration # 18     ecut=    42.50 Ry     beta= 0.70
     CG style diagonalization
     ethr =  2.87E-08,  avg # of iterations =  3.3

     total cpu time spent up to now is       45.7 secs

     total energy              =    -596.33254048 Ry
     estimated scf accuracy    <       0.00001017 Ry

     iteration # 19     ecut=    42.50 Ry     beta= 0.70
     CG style diagonalization
     ethr =  2.82E-08,  avg # of iterations =  3.4

     total cpu time spent up to now is       47.8 secs

     total energy              =    -596.33254157 Ry
     estimated scf accuracy    <       0.00000606 Ry

     iteration # 20     ecut=    42.50 Ry     beta= 0.70
     CG style diagonalization
     ethr =  1.68E-08,  avg # of iterations =  4.0

     total cpu time spent up to now is       50.1 secs

     total energy              =    -596.33254191 Ry
     estimated scf accuracy    <       0.00000355 Ry

     iteration # 21     ecut=    42.50 Ry     beta= 0.70
     CG style diagonalization
     ethr =  9.87E-09,  avg # of iterations =  4.5

     total cpu time spent up to now is       52.6 secs

     End of self-consistent calculation

          k = 0.0000 0.0000 0.0000 (  1437 PWs)   bands (ev):

    -6.2490  -5.3050  -3.7048  -3.6851  -3.6851  -3.6237  -3.6237  -3.4382
    -3.4382  -3.3398  -3.3398  -2.0964   2.6495   8.7372   8.7372   9.7750
     9.8270   9.8270

          k = 0.0000 0.0000 0.1538 (  1454 PWs)   bands (ev):

    -6.0710  -5.3881  -3.6817  -3.6817  -3.6507  -3.6378  -3.6378  -3.4192
    -3.4192  -3.3497  -3.3497  -2.6504   3.7165   8.2402   8.8883   8.8883
     9.6545   9.6545

          k = 0.0000 0.0000-0.3075 (  1448 PWs)   bands (ev):

    -5.6756  -5.6756  -3.6645  -3.6645  -3.6645  -3.6645  -3.3798  -3.3798
    -3.3798  -3.3798  -3.3616  -3.3616   5.9115   5.9115   9.2658   9.2658
     9.2658   9.2658

          k = 0.0000 0.1925 0.0000 (  1433 PWs)   bands (ev):

    -5.9929  -5.2477  -3.6729  -3.6514  -3.6097  -3.5757  -3.5730  -3.4596
    -3.4371  -3.3759  -3.3341  -1.9120   3.0341   7.0489   8.0826   8.2263
     9.4685   9.5804

          k = 0.0000 0.1925 0.1538 (  1435 PWs)   bands (ev):

    -5.8390  -5.3033  -3.6638  -3.6437  -3.6154  -3.5877  -3.5523  -3.4229
    -3.4192  -3.3774  -3.3464  -2.4276   3.9598   7.1781   7.5114   8.4107
     9.0893   9.3611

          k = 0.0000 0.1925-0.3075 (  1454 PWs)   bands (ev):

    -5.5180  -5.5180  -3.6397  -3.6397  -3.6195  -3.6195  -3.4650  -3.4650
    -3.3802  -3.3802  -3.1237  -3.1237   5.7453   5.7453   8.1394   8.1394
     8.8646   8.8646

          k = 0.0000 0.3849 0.0000 (  1447 PWs)   bands (ev):

    -5.5183  -5.1671  -3.6365  -3.6166  -3.5405  -3.4773  -3.4751  -3.4419
    -3.3927  -3.3231  -3.0328  -1.5487   3.7701   4.8569   5.8790   7.3716
     8.4890   9.0632

          k = 0.0000 0.3849 0.1538 (  1442 PWs)   bands (ev):

    -5.4308  -5.1827  -3.6441  -3.5950  -3.5721  -3.4934  -3.4768  -3.4251
    -3.3856  -3.3370  -2.9176  -1.9074   3.7899   5.0680   6.0676   7.5892
     8.5943   8.7777

          k = 0.0000 0.3849-0.3075 (  1448 PWs)   bands (ev):

    -5.2696  -5.2696  -3.6283  -3.6283  -3.5428  -3.5428  -3.4431  -3.4431
    -3.3645  -3.3645  -2.5263  -2.5263   4.2846   4.2846   7.6744   7.6744
     8.1495   8.1495

          k = 0.0000-0.5774 0.0000 (  1444 PWs)   bands (ev):

    -5.3278  -5.1464  -3.6394  -3.6151  -3.5223  -3.4789  -3.4309  -3.4249
    -3.3494  -3.3143  -2.2131  -1.6754   3.2981   4.4797   5.5117   7.0022
     7.5366   8.8089

          k = 0.0000-0.5774 0.1538 (  1446 PWs)   bands (ev):

    -5.2757  -5.1473  -3.6518  -3.5868  -3.5647  -3.4819  -3.4527  -3.3846
    -3.3481  -3.3267  -2.1581  -1.7707   3.0282   3.8850   6.4444   7.2333
     8.0685   8.4964

          k = 0.0000-0.5774-0.3075 (  1456 PWs)   bands (ev):

    -5.1868  -5.1868  -3.6422  -3.6422  -3.5172  -3.5172  -3.4089  -3.4089
    -3.3420  -3.3420  -1.9881  -1.9881   3.1461   3.1461   7.8271   7.8271
     7.8578   7.8578

          k = 0.1667 0.2887 0.0000 (  1446 PWs)   bands (ev):

    -5.6271  -5.1831  -3.6409  -3.6180  -3.5504  -3.5270  -3.4790  -3.4181
    -3.4071  -3.3623  -3.2084  -1.6164   3.6720   5.7083   6.1031   7.3580
     8.7865   8.8696

          k = 0.1667 0.2887 0.1538 (  1441 PWs)   bands (ev):

    -5.5205  -5.2076  -3.6233  -3.6206  -3.5647  -3.5515  -3.4577  -3.4519
    -3.3845  -3.3688  -3.1033  -2.0392   4.1061   5.7708   6.3298   7.3244
     8.4699   8.8577

          k = 0.1667 0.2887-0.3075 (  1448 PWs)   bands (ev):

    -5.3208  -5.3208  -3.6041  -3.6041  -3.5767  -3.5767  -3.4739  -3.4739
    -3.3697  -3.3697  -2.7139  -2.7139   4.9292   4.9292   7.6549   7.6549
     7.9578   7.9578

          k = 0.1667 0.4811 0.0000 (  1443 PWs)   bands (ev):

    -5.3186  -5.1521  -3.6620  -3.5801  -3.4928  -3.4779  -3.4567  -3.4364
    -3.3748  -3.3409  -2.3778  -1.4635   3.7322   4.6968   5.5476   6.1181
     7.7443   8.0228

          k = 0.1667 0.4811 0.1538 (  1445 PWs)   bands (ev):

    -5.2672  -5.1503  -3.6321  -3.5972  -3.5435  -3.4795  -3.4578  -3.4156
    -3.3674  -3.3575  -2.2839  -1.6367   3.4684   4.2655   5.9902   6.7605
     7.5751   8.2666

          k = 0.1667 0.4811-0.3075 (  1436 PWs)   bands (ev):

    -5.1802  -5.1802  -3.6069  -3.6069  -3.5368  -3.5368  -3.4358  -3.4358
    -3.3599  -3.3599  -2.0018  -2.0018   3.6041   3.6041   6.7116   6.7116
     8.1025   8.1025

          k = 0.3333 0.5774 0.0000 (  1440 PWs)   bands (ev):

    -5.1890  -5.1890  -3.6913  -3.4851  -3.4851  -3.4667  -3.4532  -3.4532
    -3.4062  -3.3590  -1.6779  -1.6779   4.4115   4.4115   4.4600   6.7497
     6.7497   7.0768

          k = 0.3333 0.5774 0.1538 (  1434 PWs)   bands (ev):

    -5.1661  -5.1661  -3.6510  -3.5383  -3.5383  -3.4754  -3.4126  -3.4126
    -3.4105  -3.3949  -1.6720  -1.6720   3.9242   3.9242   4.7616   6.5675
     7.5569   7.5569

          k = 0.3333 0.5774-0.3075 (  1440 PWs)   bands (ev):

    -5.1437  -5.1437  -3.5706  -3.5706  -3.5529  -3.5529  -3.4180  -3.4180
    -3.3936  -3.3936  -1.6664  -1.6664   3.5803   3.5803   5.5702   5.5702
     8.2746   8.2746

     highest occupied level (ev):     9.8270

!    total energy              =    -596.33254342 Ry
     estimated scf accuracy    <       0.00000003 Ry

     The total energy is the sum of the following terms:
     one-electron contribution =    -181.40644896 Ry
     hartree contribution      =     129.77359669 Ry
     xc contribution           =     -87.81832712 Ry
     ewald contribution        =    -233.28276133 Ry
     one-center paw contrib.   =    -223.59860270 Ry

     convergence has been achieved in  21 iterations

     Forces acting on atoms (cartesian axes, Ry/au):

     atom    1 type  1   force =     0.00000000    0.00000000   -0.00480000
     atom    2 type  1   force =     0.00000000    0.00000000   -0.00480000
     atom    3 type  2   force =     0.00000000    0.00000000    0.00480000
     atom    4 type  2   force =    -0.00000000   -0.00000000    0.00480000

     Total force =     0.009600     Total SCF correction =     0.000085


     Computing stress (Cartesian axis) and pressure

          total   stress  (Ry/bohr**3)                   (kbar)     P=      -32.15
  -0.00025979   0.00000000  -0.00000000          -38.22        0.00       -0.00
   0.00000000  -0.00025979  -0.00000000            0.00      -38.22       -0.00
   0.00000000   0.00000000  -0.00013615            0.00        0.00      -20.03


     Writing all to output data dir /home/nico-sachs/source/q-e/tempdir/gan.save/ :
     XML data file, charge density, pseudopotentials, collected wavefunctions

     init_run     :      2.06s CPU      2.17s WALL (       1 calls)
     electrons    :     48.03s CPU     50.29s WALL (       1 calls)
     forces       :      0.44s CPU      0.48s WALL (       1 calls)
     stress       :      1.94s CPU      2.05s WALL (       1 calls)

     Called by init_run:
     wfcinit      :      0.58s CPU      0.58s WALL (       1 calls)
     potinit      :      0.59s CPU      0.64s WALL (       1 calls)
     hinit0       :      0.74s CPU      0.75s WALL (       1 calls)

     Called by electrons:
     c_bands      :     32.75s CPU     33.30s WALL (      21 calls)
     sum_band     :      4.91s CPU      5.82s WALL (      21 calls)
     v_of_rho     :      0.64s CPU      0.65s WALL (      22 calls)
     newd         :      2.90s CPU      3.72s WALL (      22 calls)
     PAW_pot      :      7.24s CPU      7.29s WALL (      22 calls)
     mix_rho      :      0.06s CPU      0.06s WALL (      21 calls)

     Called by c_bands:
     init_us_2    :      0.38s CPU      0.38s WALL (     945 calls)
     ccgdiagg     :     26.84s CPU     27.34s WALL (     441 calls)
     wfcrot       :      6.23s CPU      6.28s WALL (     441 calls)

     Called by *cgdiagg:
     h_psi        :     18.38s CPU     18.69s WALL (   25540 calls)
     s_psi        :      7.01s CPU      7.13s WALL (   50639 calls)

     Called by h_psi:
     h_psi:calbec :      4.99s CPU      5.08s WALL (   25540 calls)
     vloc_psi     :      9.20s CPU      9.38s WALL (   25540 calls)
                                        0.00s GPU  (   25540 calls)
     add_vuspsi   :      4.00s CPU      4.06s WALL (   25540 calls)
     hs_1psi      :     17.39s CPU     17.72s WALL (   25099 calls)
     s_1psi       :      7.17s CPU      7.30s WALL (   25099 calls)

     General routines
     calbec       :     10.57s CPU     10.75s WALL (   51437 calls)
     fft          :      0.51s CPU      0.51s WALL (     309 calls)
     ffts         :      0.18s CPU      0.18s WALL (      43 calls)
     fftw         :      8.47s CPU      8.63s WALL (   74348 calls)
     interpolate  :      0.20s CPU      0.20s WALL (      22 calls)

     Parallel routines

     PWSCF        :     52.63s CPU     55.20s WALL


   This run was terminated on:  15:29:42  27Jan2026            

=------------------------------------------------------------------------------=
   JOB DONE.
=------------------------------------------------------------------------------=
