
     Program PWSCF v.7.5 starts on 27Jan2026 at 15:44:11 

     This program is part of the open-source Quantum ESPRESSO suite
     for quantum simulation of materials; please cite
         "P. Giannozzi et al., J. Phys.:Condens. Matter 21 395502 (2009);
         "P. Giannozzi et al., J. Phys.:Condens. Matter 29 465901 (2017);
         "P. Giannozzi et al., J. Chem. Phys. 152 154105 (2020);
          URL http://www.quantum-espresso.org", 
     in publications or presentations arising from this work. More details at
     http://www.quantum-espresso.org/quote

     Parallel version (MPI), running on     4 processors

     MPI processes distributed on     1 nodes
     23164 MiB available memory on the printing compute node when the environment starts

     Waiting for input...
     Reading input from standard input

     Current dimensions of program PWSCF are:
     Max number of different atomic species (ntypx) = 10
     Max number of k-points (npk) =  40000
     Max angular momentum in pseudopotentials (lmaxx) =  4
     file Ga.pbe-dn-kjpaw_psl.1.0.0.UPF: wavefunction(s)  4S renormalized
     Message from routine set_cutoff:
     ecutrho < 4*ecutwfc, are you sure?

     R & G space division:  proc/nbgrp/npool/nimage =       4
     Subspace diagonalization in iterative solution of the eigenvalue problem:
     a serial algorithm will be used


     Parallelization info
     --------------------
     sticks:   dense  smooth     PW     G-vecs:    dense   smooth      PW
     Min         250     250    105                10432    10432    2869
     Max         251     251    106                10439    10439    2878
     Sum        1003    1003    421                41745    41745   11489

     Using Slab Decomposition



     bravais-lattice index     =            4
     lattice parameter (alat)  =       6.0263  a.u.
     unit-cell volume          =     308.1662 (a.u.)^3
     number of atoms/cell      =            4
     number of atomic types    =            2
     number of electrons       =        36.00
     number of Kohn-Sham states=           18
     kinetic-energy cutoff     =     150.0000  Ry
     charge density cutoff     =     400.0000  Ry
     scf convergence threshold =      1.0E-06
     mixing beta               =       0.7000
     number of iterations used =            8  plain     mixing
     Exchange-correlation= PBE
                           (   1   4   3   4   0   0   0)

     celldm(1)=   6.026337  celldm(2)=   0.000000  celldm(3)=   1.625902
     celldm(4)=   0.000000  celldm(5)=   0.000000  celldm(6)=   0.000000

     crystal axes: (cart. coord. in units of alat)
               a(1) = (   1.000000   0.000000   0.000000 )  
               a(2) = (  -0.500000   0.866025   0.000000 )  
               a(3) = (   0.000000   0.000000   1.625902 )  

     reciprocal axes: (cart. coord. in units 2 pi/alat)
               b(1) = (  1.000000  0.577350 -0.000000 )  
               b(2) = (  0.000000  1.154701  0.000000 )  
               b(3) = (  0.000000 -0.000000  0.615043 )  


     PseudoPot. # 1 for Ga read from file:
     /home/nico-sachs/source/q-e/SSSP_1.3.0_PBE_efficiency/Ga.pbe-dn-kjpaw_psl.1.0.0.UPF
     MD5 check sum: a27b4342b1af7e5f338de752e9ed7044
     Pseudo is Projector augmented-wave + core cor, Zval = 13.0
     Generated using "atomic" code by A. Dal Corso  v.5.1
     Shape of augmentation charge: PSQ
     Using radial grid of 1205 points,  6 beta functions with: 
                l(1) =   0
                l(2) =   0
                l(3) =   1
                l(4) =   1
                l(5) =   2
                l(6) =   2
     Q(r) pseudized with 0 coefficients 


     PseudoPot. # 2 for N  read from file:
     /home/nico-sachs/source/q-e/SSSP_1.3.0_PBE_efficiency/N.pbe-n-radius_5.UPF
     MD5 check sum: 16739722b17309cd8fe442a2ace49922
     Pseudo is Ultrasoft + core correction, Zval =  5.0
     Generated using "atomic" code by A. Dal Corso  v.5.1
     Using radial grid of 1085 points,  4 beta functions with: 
                l(1) =   0
                l(2) =   0
                l(3) =   1
                l(4) =   1
     Q(r) pseudized with 0 coefficients 


     atomic species   valence    mass     pseudopotential
     Ga               13.00    69.72300     Ga( 1.00)
     N                 5.00    14.00700     N ( 1.00)

     12 Sym. Ops. (no inversion) found ( 6 have fractional translation)



   Cartesian axes

     site n.     atom                  positions (alat units)
         1        Ga     tau(   1) = (  -0.0000000   0.5773503   0.0000000  )
         2        Ga     tau(   2) = (   0.5000000   0.2886751   0.8129508  )
         3        N      tau(   3) = (  -0.0000000   0.5773503   0.6097131  )
         4        N      tau(   4) = (   0.5000000   0.2886751   1.4226638  )

     number of k points=    21
                       cart. coord. in units 2pi/alat
        k(    1) = (   0.0000000   0.0000000   0.0000000), wk =   0.0138889
        k(    2) = (   0.0000000   0.0000000   0.1537608), wk =   0.0277778
        k(    3) = (   0.0000000   0.0000000  -0.3075217), wk =   0.0138889
        k(    4) = (   0.0000000   0.1924501   0.0000000), wk =   0.0833333
        k(    5) = (   0.0000000   0.1924501   0.1537608), wk =   0.1666667
        k(    6) = (   0.0000000   0.1924501  -0.3075217), wk =   0.0833333
        k(    7) = (   0.0000000   0.3849002   0.0000000), wk =   0.0833333
        k(    8) = (   0.0000000   0.3849002   0.1537608), wk =   0.1666667
        k(    9) = (   0.0000000   0.3849002  -0.3075217), wk =   0.0833333
        k(   10) = (   0.0000000  -0.5773503   0.0000000), wk =   0.0416667
        k(   11) = (   0.0000000  -0.5773503   0.1537608), wk =   0.0833333
        k(   12) = (   0.0000000  -0.5773503  -0.3075217), wk =   0.0416667
        k(   13) = (   0.1666667   0.2886751   0.0000000), wk =   0.0833333
        k(   14) = (   0.1666667   0.2886751   0.1537608), wk =   0.1666667
        k(   15) = (   0.1666667   0.2886751  -0.3075217), wk =   0.0833333
        k(   16) = (   0.1666667   0.4811252   0.0000000), wk =   0.1666667
        k(   17) = (   0.1666667   0.4811252   0.1537608), wk =   0.3333333
        k(   18) = (   0.1666667   0.4811252  -0.3075217), wk =   0.1666667
        k(   19) = (   0.3333333   0.5773503   0.0000000), wk =   0.0277778
        k(   20) = (   0.3333333   0.5773503   0.1537608), wk =   0.0555556
        k(   21) = (   0.3333333   0.5773503  -0.3075217), wk =   0.0277778

     Dense  grid:    41745 G-vectors     FFT dimensions: (  40,  40,  64)

     Estimated max dynamical RAM per process >      57.98 MB

     Estimated total dynamical RAM >     231.93 MB

     Initial potential from superposition of free atoms

     starting charge      35.9941, renormalised to      36.0000
     Starting wfcs are   26 randomized atomic wfcs
     Checking if some PAW data can be deallocated... 

     total cpu time spent up to now is        2.1 secs

     Self-consistent Calculation

     iteration #  1     ecut=   150.00 Ry     beta= 0.70
     CG style diagonalization
     ethr =  1.00E-02,  avg # of iterations =  2.0

     total cpu time spent up to now is        4.8 secs

     total energy              =    -595.57817000 Ry
     estimated scf accuracy    <       1.11641266 Ry

     iteration #  2     ecut=   150.00 Ry     beta= 0.70
     CG style diagonalization
     ethr =  3.10E-03,  avg # of iterations =  4.8

     total cpu time spent up to now is       10.3 secs

     total energy              =    -596.03456006 Ry
     estimated scf accuracy    <       1.05969698 Ry

     iteration #  3     ecut=   150.00 Ry     beta= 0.70
     CG style diagonalization
     ethr =  2.94E-03,  avg # of iterations =  3.8

     total cpu time spent up to now is       15.3 secs

     total energy              =    -596.21773831 Ry
     estimated scf accuracy    <       0.00770694 Ry

     iteration #  4     ecut=   150.00 Ry     beta= 0.70
     CG style diagonalization
     c_bands:  1 eigenvalues not converged
     c_bands:  1 eigenvalues not converged
     c_bands:  1 eigenvalues not converged
     c_bands:  1 eigenvalues not converged
     c_bands:  1 eigenvalues not converged
     c_bands:  2 eigenvalues not converged
     c_bands:  2 eigenvalues not converged
     c_bands:  1 eigenvalues not converged
     c_bands:  2 eigenvalues not converged
     c_bands:  1 eigenvalues not converged
     ethr =  2.14E-05,  avg # of iterations =  9.9

     total cpu time spent up to now is       27.4 secs

     total energy              =    -596.36056734 Ry
     estimated scf accuracy    <       0.04396687 Ry

     iteration #  5     ecut=   150.00 Ry     beta= 0.70
     CG style diagonalization
     ethr =  2.14E-05,  avg # of iterations =  4.2

     total cpu time spent up to now is       32.1 secs

     total energy              =    -596.36432456 Ry
     estimated scf accuracy    <       0.06829080 Ry

     iteration #  6     ecut=   150.00 Ry     beta= 0.70
     CG style diagonalization
     ethr =  2.14E-05,  avg # of iterations =  6.0

     total cpu time spent up to now is       38.9 secs

     total energy              =    -596.37207300 Ry
     estimated scf accuracy    <       0.03386353 Ry

     iteration #  7     ecut=   150.00 Ry     beta= 0.70
     CG style diagonalization
     ethr =  2.14E-05,  avg # of iterations =  4.6

     total cpu time spent up to now is       44.0 secs

     total energy              =    -596.37174922 Ry
     estimated scf accuracy    <       0.04947069 Ry

     iteration #  8     ecut=   150.00 Ry     beta= 0.70
     CG style diagonalization
     ethr =  2.14E-05,  avg # of iterations =  3.2

     total cpu time spent up to now is       47.6 secs

     total energy              =    -596.37173038 Ry
     estimated scf accuracy    <       0.02352535 Ry

     iteration #  9     ecut=   150.00 Ry     beta= 0.70
     CG style diagonalization
     ethr =  2.14E-05,  avg # of iterations =  3.0

     total cpu time spent up to now is       51.1 secs

     total energy              =    -596.37177462 Ry
     estimated scf accuracy    <       0.02007375 Ry

     iteration # 10     ecut=   150.00 Ry     beta= 0.70
     CG style diagonalization
     ethr =  2.14E-05,  avg # of iterations =  3.0

     total cpu time spent up to now is       54.5 secs

     total energy              =    -596.36936763 Ry
     estimated scf accuracy    <       0.01931622 Ry

     iteration # 11     ecut=   150.00 Ry     beta= 0.70
     CG style diagonalization
     ethr =  2.14E-05,  avg # of iterations =  3.0

     total cpu time spent up to now is       58.0 secs

     total energy              =    -596.37427347 Ry
     estimated scf accuracy    <       0.00549150 Ry

     iteration # 12     ecut=   150.00 Ry     beta= 0.70
     CG style diagonalization
     ethr =  1.53E-05,  avg # of iterations =  3.4

     total cpu time spent up to now is       61.9 secs

     total energy              =    -596.36818722 Ry
     estimated scf accuracy    <       0.04212172 Ry

     iteration # 13     ecut=   150.00 Ry     beta= 0.70
     CG style diagonalization
     ethr =  1.53E-05,  avg # of iterations =  3.9

     total cpu time spent up to now is       66.3 secs

     total energy              =    -596.36898085 Ry
     estimated scf accuracy    <       0.00224366 Ry

     iteration # 14     ecut=   150.00 Ry     beta= 0.70
     CG style diagonalization
     ethr =  6.23E-06,  avg # of iterations =  4.0

     total cpu time spent up to now is       71.0 secs

     total energy              =    -596.36948412 Ry
     estimated scf accuracy    <       0.00038216 Ry

     iteration # 15     ecut=   150.00 Ry     beta= 0.70
     CG style diagonalization
     ethr =  1.06E-06,  avg # of iterations =  5.7

     total cpu time spent up to now is       77.4 secs

     total energy              =    -596.36997113 Ry
     estimated scf accuracy    <       0.00035019 Ry

     iteration # 16     ecut=   150.00 Ry     beta= 0.70
     CG style diagonalization
     ethr =  9.73E-07,  avg # of iterations =  4.1

     total cpu time spent up to now is       82.1 secs

     total energy              =    -596.37013548 Ry
     estimated scf accuracy    <       0.00035602 Ry

     iteration # 17     ecut=   150.00 Ry     beta= 0.70
     CG style diagonalization
     ethr =  9.73E-07,  avg # of iterations =  3.5

     total cpu time spent up to now is       86.1 secs

     total energy              =    -596.37008360 Ry
     estimated scf accuracy    <       0.00048755 Ry

     iteration # 18     ecut=   150.00 Ry     beta= 0.70
     CG style diagonalization
     ethr =  9.73E-07,  avg # of iterations =  3.1

     total cpu time spent up to now is       89.7 secs

     total energy              =    -596.37007977 Ry
     estimated scf accuracy    <       0.00007736 Ry

     iteration # 19     ecut=   150.00 Ry     beta= 0.70
     CG style diagonalization
     ethr =  2.15E-07,  avg # of iterations =  5.1

     total cpu time spent up to now is       95.5 secs

     total energy              =    -596.37013667 Ry
     estimated scf accuracy    <       0.00001976 Ry

     iteration # 20     ecut=   150.00 Ry     beta= 0.70
     CG style diagonalization
     ethr =  5.49E-08,  avg # of iterations =  6.5

     total cpu time spent up to now is      103.1 secs

     total energy              =    -596.37017023 Ry
     estimated scf accuracy    <       0.00007069 Ry

     iteration # 21     ecut=   150.00 Ry     beta= 0.70
     CG style diagonalization
     ethr =  5.49E-08,  avg # of iterations =  4.1

     total cpu time spent up to now is      108.2 secs

     total energy              =    -596.37017288 Ry
     estimated scf accuracy    <       0.00004545 Ry

     iteration # 22     ecut=   150.00 Ry     beta= 0.70
     CG style diagonalization
     ethr =  5.49E-08,  avg # of iterations =  3.5

     total cpu time spent up to now is      112.7 secs

     total energy              =    -596.37017399 Ry
     estimated scf accuracy    <       0.00001559 Ry

     iteration # 23     ecut=   150.00 Ry     beta= 0.70
     CG style diagonalization
     ethr =  4.33E-08,  avg # of iterations =  3.4

     total cpu time spent up to now is      117.1 secs

     total energy              =    -596.37017683 Ry
     estimated scf accuracy    <       0.00000334 Ry

     iteration # 24     ecut=   150.00 Ry     beta= 0.70
     CG style diagonalization
     ethr =  9.28E-09,  avg # of iterations =  7.2

     total cpu time spent up to now is      126.4 secs

     total energy              =    -596.37018304 Ry
     estimated scf accuracy    <       0.00001159 Ry

     iteration # 25     ecut=   150.00 Ry     beta= 0.70
     CG style diagonalization
     ethr =  9.28E-09,  avg # of iterations =  4.2

     total cpu time spent up to now is      131.8 secs

     total energy              =    -596.37018135 Ry
     estimated scf accuracy    <       0.00000985 Ry

     iteration # 26     ecut=   150.00 Ry     beta= 0.70
     CG style diagonalization
     ethr =  9.28E-09,  avg # of iterations =  3.8

     total cpu time spent up to now is      136.7 secs

     End of self-consistent calculation

          k = 0.0000 0.0000 0.0000 (  9561 PWs)   bands (ev):

    -6.2580  -5.3508  -3.7606  -3.7396  -3.7396  -3.6777  -3.6777  -3.4918
    -3.4918  -3.3924  -3.3924  -2.1357   2.6389   8.6790   8.6790   9.6638
     9.7260   9.7260

          k = 0.0000 0.0000 0.1538 (  9614 PWs)   bands (ev):

    -6.0825  -5.4231  -3.7359  -3.7359  -3.7035  -3.6917  -3.6917  -3.4723
    -3.4723  -3.4024  -3.4024  -2.6877   3.6933   8.1708   8.8256   8.8256
     9.5660   9.5660

          k = 0.0000 0.0000-0.3075 (  9542 PWs)   bands (ev):

    -5.6971  -5.6971  -3.7188  -3.7188  -3.7188  -3.7188  -3.4328  -3.4328
    -3.4328  -3.4328  -3.4066  -3.4066   5.8633   5.8633   9.1890   9.1890
     9.1890   9.1890

          k = 0.0000 0.1925 0.0000 (  9563 PWs)   bands (ev):

    -6.0067  -5.2928  -3.7277  -3.7060  -3.6631  -3.6280  -3.6272  -3.5129
    -3.4904  -3.4287  -3.3869  -1.9510   3.0233   7.0028   8.0053   8.1722
     9.3767   9.4894

          k = 0.0000 0.1925 0.1538 (  9567 PWs)   bands (ev):

    -5.8560  -5.3419  -3.7183  -3.6982  -3.6694  -3.6422  -3.6036  -3.4754
    -3.4723  -3.4292  -3.3993  -2.4643   3.9352   7.1187   7.4491   8.3489
     9.0114   9.2778

          k = 0.0000 0.1925-0.3075 (  9560 PWs)   bands (ev):

    -5.5438  -5.5438  -3.6936  -3.6936  -3.6737  -3.6737  -3.5165  -3.5165
    -3.4330  -3.4330  -3.1669  -3.1669   5.6992   5.6992   8.0832   8.0832
     8.7961   8.7961

          k = 0.0000 0.3849 0.0000 (  9554 PWs)   bands (ev):

    -5.5470  -5.2147  -3.6903  -3.6712  -3.5932  -3.5301  -3.5282  -3.4944
    -3.4457  -3.3760  -3.0738  -1.5887   3.7567   4.8353   5.8331   7.3421
     8.4338   8.9914

          k = 0.0000 0.3849 0.1538 (  9561 PWs)   bands (ev):

    -5.4623  -5.2280  -3.6978  -3.6491  -3.6252  -3.5466  -3.5296  -3.4778
    -3.4385  -3.3899  -2.9571  -1.9444   3.7683   5.0296   6.0369   7.5550
     8.5360   8.7137

          k = 0.0000 0.3849-0.3075 (  9554 PWs)   bands (ev):

    -5.3077  -5.3077  -3.6816  -3.6816  -3.5963  -3.5963  -3.4957  -3.4957
    -3.4173  -3.4173  -2.5628  -2.5628   4.2524   4.2524   7.6322   7.6322
     8.1030   8.1030

          k = 0.0000-0.5774 0.0000 (  9544 PWs)   bands (ev):

    -5.3684  -5.1938  -3.6934  -3.6694  -3.5753  -3.5317  -3.4839  -3.4777
    -3.4020  -3.3671  -2.2517  -1.7118   3.2798   4.4592   5.4925   6.9805
     7.4898   8.7478

          k = 0.0000-0.5774 0.1538 (  9556 PWs)   bands (ev):

    -5.3174  -5.1939  -3.7060  -3.6404  -3.6178  -3.5347  -3.5058  -3.4374
    -3.4006  -3.3794  -2.1961  -1.8072   3.0122   3.8644   6.4154   7.2065
     8.0186   8.4464

          k = 0.0000-0.5774-0.3075 (  9580 PWs)   bands (ev):

    -5.2294  -5.2294  -3.6955  -3.6955  -3.5705  -3.5705  -3.4613  -3.4613
    -3.3946  -3.3946  -2.0246  -2.0246   3.1291   3.1291   7.7900   7.7900
     7.8161   7.8161

          k = 0.1667 0.2887 0.0000 (  9562 PWs)   bands (ev):

    -5.6507  -5.2298  -3.6950  -3.6723  -3.6038  -3.5798  -3.5317  -3.4709
    -3.4601  -3.4140  -3.2538  -1.6563   3.6605   5.6788   6.0558   7.3253
     8.7166   8.8016

          k = 0.1667 0.2887 0.1538 (  9560 PWs)   bands (ev):

    -5.5482  -5.2503  -3.6777  -3.6745  -3.6181  -3.6046  -3.5107  -3.5047
    -3.4373  -3.4212  -3.1462  -2.0757   4.0810   5.7190   6.2996   7.2873
     8.4080   8.7915

          k = 0.1667 0.2887-0.3075 (  9546 PWs)   bands (ev):

    -5.3557  -5.3557  -3.6576  -3.6576  -3.6302  -3.6302  -3.5265  -3.5265
    -3.4225  -3.4225  -2.7518  -2.7518   4.8878   4.8878   7.6066   7.6066
     7.9170   7.9170

          k = 0.1667 0.4811 0.0000 (  9549 PWs)   bands (ev):

    -5.3575  -5.1989  -3.7162  -3.6338  -3.5459  -3.5308  -3.5096  -3.4893
    -3.4276  -3.3936  -2.4151  -1.5034   3.7176   4.6723   5.5245   6.0989
     7.6987   7.9661

          k = 0.1667 0.4811 0.1538 (  9555 PWs)   bands (ev):

    -5.3075  -5.1961  -3.6858  -3.6509  -3.5967  -3.5325  -3.5106  -3.4684
    -3.4201  -3.4101  -2.3210  -1.6753   3.4528   4.2399   5.9664   6.7337
     7.5278   8.2195

          k = 0.1667 0.4811-0.3075 (  9566 PWs)   bands (ev):

    -5.2246  -5.2246  -3.6605  -3.6605  -3.5903  -3.5903  -3.4887  -3.4887
    -3.4126  -3.4126  -2.0389  -2.0389   3.5822   3.5822   6.6764   6.6764
     8.0614   8.0614

          k = 0.3333 0.5774 0.0000 (  9540 PWs)   bands (ev):

    -5.2346  -5.2346  -3.7452  -3.5382  -3.5382  -3.5198  -3.5061  -3.5061
    -3.4591  -3.4118  -1.7171  -1.7171   4.3961   4.3961   4.4467   6.7174
     6.7174   7.0347

          k = 0.3333 0.5774 0.1538 (  9573 PWs)   bands (ev):

    -5.2119  -5.2119  -3.7051  -3.5916  -3.5916  -3.5287  -3.4655  -3.4655
    -3.4635  -3.4477  -1.7115  -1.7115   3.9085   3.9085   4.7450   6.5292
     7.5202   7.5202

          k = 0.3333 0.5774-0.3075 (  9594 PWs)   bands (ev):

    -5.1887  -5.1887  -3.6240  -3.6240  -3.6061  -3.6061  -3.4708  -3.4708
    -3.4464  -3.4464  -1.7056  -1.7056   3.5649   3.5649   5.5447   5.5447
     8.2346   8.2346

     highest occupied level (ev):     9.7260

!    total energy              =    -596.37018148 Ry
     estimated scf accuracy    <       0.00000041 Ry

     The total energy is the sum of the following terms:
     one-electron contribution =    -181.36969486 Ry
     hartree contribution      =     130.13897244 Ry
     xc contribution           =     -87.87740946 Ry
     ewald contribution        =    -233.28276133 Ry
     one-center paw contrib.   =    -223.97928828 Ry

     convergence has been achieved in  26 iterations

     Forces acting on atoms (cartesian axes, Ry/au):

     atom    1 type  1   force =     0.00000000    0.00000000   -0.00475639
     atom    2 type  1   force =     0.00000000    0.00000000   -0.00475639
     atom    3 type  2   force =    -0.00000000   -0.00000000    0.00475639
     atom    4 type  2   force =    -0.00000000   -0.00000000    0.00475639

     Total force =     0.009513     Total SCF correction =     0.000146


     Computing stress (Cartesian axis) and pressure

          total   stress  (Ry/bohr**3)                   (kbar)     P=       54.29
   0.00033026   0.00000000  -0.00000000           48.58        0.00       -0.00
   0.00000000   0.00033026  -0.00000000            0.00       48.58       -0.00
  -0.00000000  -0.00000000   0.00044661           -0.00       -0.00       65.70


     Writing all to output data dir /home/nico-sachs/source/q-e/tempdir/gan.save/ :
     XML data file, charge density, pseudopotentials, collected wavefunctions

     init_run     :      1.86s CPU      1.92s WALL (       1 calls)
     electrons    :    131.58s CPU    134.56s WALL (       1 calls)
     forces       :      0.61s CPU      0.61s WALL (       1 calls)
     stress       :      2.27s CPU      2.28s WALL (       1 calls)

     Called by init_run:
     wfcinit      :      1.13s CPU      1.15s WALL (       1 calls)
     potinit      :      0.26s CPU      0.29s WALL (       1 calls)
     hinit0       :      0.34s CPU      0.34s WALL (       1 calls)

     Called by electrons:
     c_bands      :    115.49s CPU    118.22s WALL (      26 calls)
     sum_band     :      8.20s CPU      8.43s WALL (      26 calls)
     v_of_rho     :      0.33s CPU      0.34s WALL (      27 calls)
     newd         :      1.17s CPU      1.19s WALL (      27 calls)
     PAW_pot      :      6.56s CPU      6.59s WALL (      27 calls)
     mix_rho      :      0.09s CPU      0.09s WALL (      26 calls)

     Called by c_bands:
     init_us_2    :      1.59s CPU      1.61s WALL (    1155 calls)
     ccgdiagg     :     96.84s CPU     99.13s WALL (     546 calls)
     wfcrot       :     18.54s CPU     18.99s WALL (     546 calls)

     Called by *cgdiagg:
     h_psi        :     60.01s CPU     62.17s WALL (   33866 calls)
     s_psi        :     24.17s CPU     24.46s WALL (   67186 calls)

     Called by h_psi:
     h_psi:calbec :     18.36s CPU     19.10s WALL (   33866 calls)
     vloc_psi     :     27.33s CPU     28.46s WALL (   33866 calls)
                                        0.00s GPU  (   33866 calls)
     add_vuspsi   :     13.68s CPU     13.98s WALL (   33866 calls)
     hs_1psi      :     59.31s CPU     61.23s WALL (   33320 calls)
     s_1psi       :     25.62s CPU     25.87s WALL (   33320 calls)

     General routines
     calbec       :     38.38s CPU     39.31s WALL (   68089 calls)
     fft          :      0.31s CPU      0.31s WALL (     322 calls)
     ffts         :      0.01s CPU      0.01s WALL (      26 calls)
     fftw         :     24.98s CPU     26.14s WALL (   96460 calls)

     Parallel routines

     PWSCF        :   2m16.52s CPU   2m19.66s WALL


   This run was terminated on:  15:46:31  27Jan2026            

=------------------------------------------------------------------------------=
   JOB DONE.
=------------------------------------------------------------------------------=
