
     Program PWSCF v.7.5 starts on 18Feb2026 at 19:40: 6 
        Git branch: develop
        Last git commit: 797f00f1d3f390f642411209b167af6668f3cb83
        Last git commit date: Mon Dec 8 18:25:28 2025 +0000
        Last git commit subject: Merge branch 'uniform_uv' into 'develop'

     This program is part of the open-source Quantum ESPRESSO suite
     for quantum simulation of materials; please cite
         "P. Giannozzi et al., J. Phys.:Condens. Matter 21 395502 (2009);
         "P. Giannozzi et al., J. Phys.:Condens. Matter 29 465901 (2017);
         "P. Giannozzi et al., J. Chem. Phys. 152 154105 (2020);
          URL http://www.quantum-espresso.org", 
     in publications or presentations arising from this work. More details at
     http://www.quantum-espresso.org/quote

     Parallel version (MPI), running on    24 processors

     MPI processes distributed on     1 nodes
     94582 MiB available memory on the printing compute node when the environment starts

     Waiting for input...
     Reading input from standard input

     Current dimensions of program PWSCF are:
     Max number of different atomic species (ntypx) = 10
     Max number of k-points (npk) =  40000
     Max angular momentum in pseudopotentials (lmaxx) =  4

     R & G space division:  proc/nbgrp/npool/nimage =      24
     Subspace diagonalization in iterative solution of the eigenvalue problem:
     a serial algorithm will be used


     Parallelization info
     --------------------
     sticks:   dense  smooth     PW     G-vecs:    dense   smooth      PW
     Min          97      65     18                 3140     1713     266
     Max          98      66     19                 3146     1716     269
     Sum        2347    1573    451                75457    41151    6423

     Using Slab Decomposition



     bravais-lattice index     =            2
     lattice parameter (alat)  =      10.6840  a.u.
     unit-cell volume          =     304.8889 (a.u.)^3
     number of atoms/cell      =            2
     number of atomic types    =            2
     number of electrons       =        28.00
     number of Kohn-Sham states=           14
     kinetic-energy cutoff     =     100.0000  Ry
     charge density cutoff     =     600.0000  Ry
     scf convergence threshold =      1.0E-09
     mixing beta               =       0.7000
     number of iterations used =            8  plain     mixing
     energy convergence thresh.=      1.0E-04
     force convergence thresh. =      1.0E-06
     press convergence thresh. =      5.0E-01
     Exchange-correlation= PBESOL
                           (   1   4  10   8   0   0   0)
     nstep                     =           50


     celldm(1)=  10.684000  celldm(2)=   0.000000  celldm(3)=   0.000000
     celldm(4)=   0.000000  celldm(5)=   0.000000  celldm(6)=   0.000000

     crystal axes: (cart. coord. in units of alat)
               a(1) = (  -0.500000   0.000000   0.500000 )  
               a(2) = (   0.000000   0.500000   0.500000 )  
               a(3) = (  -0.500000   0.500000   0.000000 )  

     reciprocal axes: (cart. coord. in units 2 pi/alat)
               b(1) = ( -1.000000 -1.000000  1.000000 )  
               b(2) = (  1.000000  1.000000  1.000000 )  
               b(3) = ( -1.000000  1.000000 -1.000000 )  


     PseudoPot. # 1 for Ga read from file:
     /home/sachs/software/q-e/Pseudofolder/nc-sr-04_pbesol_standard_upf/Ga.upf
     MD5 check sum: 3b2828b26f3ae6b9eab8bf4a0fe74f9e
     Pseudo is Norm-conserving + core correction, Zval = 13.0
     Generated using ONCVPSP code by D. R. Hamann
     Using radial grid of 1902 points,  6 beta functions with: 
                l(1) =   0
                l(2) =   0
                l(3) =   1
                l(4) =   1
                l(5) =   2
                l(6) =   2

     PseudoPot. # 2 for As read from file:
     /home/sachs/software/q-e/Pseudofolder/nc-sr-04_pbesol_standard_upf/As.upf
     MD5 check sum: 8e1cf9692a75f2b458f16819c50a4a5a
     Pseudo is Norm-conserving + core correction, Zval = 15.0
     Generated using ONCVPSP code by D. R. Hamann
     Using radial grid of 1342 points,  6 beta functions with: 
                l(1) =   0
                l(2) =   0
                l(3) =   1
                l(4) =   1
                l(5) =   2
                l(6) =   2

     atomic species   valence    mass     pseudopotential
     Ga               13.00    69.72300     Ga( 1.00)
     As               15.00    74.92100     As( 1.00)

     24 Sym. Ops. (no inversion) found



   Cartesian axes

     site n.     atom                  positions (alat units)
         1        Ga     tau(   1) = (   0.0000000   0.0000000   0.0000000  )
         2        As     tau(   2) = (  -0.2500000   0.2500000   0.2500000  )

     number of k points=   455

     Number of k-points >= 100: set verbosity='high' to print them.

     Dense  grid:    75457 G-vectors     FFT dimensions: (  60,  60,  60)

     Smooth grid:    41151 G-vectors     FFT dimensions: (  50,  50,  50)

     Estimated max dynamical RAM per process >      31.05 MB

     Estimated total dynamical RAM >     745.30 MB

     Initial potential from superposition of free atoms

     starting charge      27.9973, renormalised to      28.0000
     Starting wfcs are   18 randomized atomic wfcs

     total cpu time spent up to now is       20.4 secs

     per-process dynamical memory:    32.8 Mb

     Self-consistent Calculation

     iteration #  1     ecut=   100.00 Ry     beta= 0.70
     CG style diagonalization
     ethr =  1.00E-02,  avg # of iterations =  2.7

     Threshold (ethr) on eigenvalues was too large:
     Diagonalizing with lowered threshold

     CG style diagonalization
     ethr =  1.43E-04,  avg # of iterations =  2.7

     total cpu time spent up to now is       62.7 secs

     total energy              =    -364.60642703 Ry
     estimated scf accuracy    <       0.04445516 Ry

     iteration #  2     ecut=   100.00 Ry     beta= 0.70
     CG style diagonalization
     ethr =  1.59E-04,  avg # of iterations =  3.6

     total cpu time spent up to now is       88.2 secs

     total energy              =    -364.61323513 Ry
     estimated scf accuracy    <       0.00663157 Ry

     iteration #  3     ecut=   100.00 Ry     beta= 0.70
     CG style diagonalization
     ethr =  2.37E-05,  avg # of iterations =  3.5

     total cpu time spent up to now is      113.8 secs

     total energy              =    -364.61501718 Ry
     estimated scf accuracy    <       0.00034280 Ry

     iteration #  4     ecut=   100.00 Ry     beta= 0.70
     CG style diagonalization
     ethr =  1.22E-06,  avg # of iterations =  4.9

     total cpu time spent up to now is      148.9 secs

     total energy              =    -364.61536116 Ry
     estimated scf accuracy    <       0.00009800 Ry

     iteration #  5     ecut=   100.00 Ry     beta= 0.70
     CG style diagonalization
     ethr =  3.50E-07,  avg # of iterations =  3.6

     total cpu time spent up to now is      174.9 secs

     total energy              =    -364.61516686 Ry
     estimated scf accuracy    <       0.00036094 Ry

     iteration #  6     ecut=   100.00 Ry     beta= 0.70
     CG style diagonalization
     ethr =  3.50E-07,  avg # of iterations =  4.1

     total cpu time spent up to now is      204.1 secs

     total energy              =    -364.61520630 Ry
     estimated scf accuracy    <       0.00001296 Ry

     iteration #  7     ecut=   100.00 Ry     beta= 0.70
     CG style diagonalization
     ethr =  4.63E-08,  avg # of iterations =  3.8

     total cpu time spent up to now is      231.0 secs

     total energy              =    -364.61520638 Ry
     estimated scf accuracy    <       0.00000635 Ry

     iteration #  8     ecut=   100.00 Ry     beta= 0.70
     CG style diagonalization
     ethr =  2.27E-08,  avg # of iterations =  3.8

     total cpu time spent up to now is      258.1 secs

     total energy              =    -364.61520742 Ry
     estimated scf accuracy    <       0.00000045 Ry

     iteration #  9     ecut=   100.00 Ry     beta= 0.70
     CG style diagonalization
     ethr =  1.61E-09,  avg # of iterations =  4.0

     total cpu time spent up to now is      286.5 secs

     total energy              =    -364.61520753 Ry
     estimated scf accuracy    <       0.00000006 Ry

     iteration # 10     ecut=   100.00 Ry     beta= 0.70
     CG style diagonalization
     ethr =  2.11E-10,  avg # of iterations =  4.2

     total cpu time spent up to now is      316.7 secs

     total energy              =    -364.61520754 Ry
     estimated scf accuracy    <       0.00000001 Ry

     iteration # 11     ecut=   100.00 Ry     beta= 0.70
     CG style diagonalization
     ethr =  3.67E-11,  avg # of iterations =  3.7

     total cpu time spent up to now is      343.3 secs

     total energy              =    -364.61520754 Ry
     estimated scf accuracy    <          5.6E-09 Ry

     iteration # 12     ecut=   100.00 Ry     beta= 0.70
     CG style diagonalization
     ethr =  1.99E-11,  avg # of iterations =  4.2

     total cpu time spent up to now is      373.7 secs

     total energy              =    -364.61520754 Ry
     estimated scf accuracy    <          1.3E-09 Ry

     iteration # 13     ecut=   100.00 Ry     beta= 0.70
     CG style diagonalization
     ethr =  4.51E-12,  avg # of iterations =  4.0

     total cpu time spent up to now is      402.5 secs

     End of self-consistent calculation

     Number of k-points >= 100: set verbosity='high' to print the bands.

     highest occupied level (ev):     8.6637

!    total energy              =    -364.61520754 Ry
     estimated scf accuracy    <          1.4E-10 Ry

     The total energy is the sum of the following terms:
     one-electron contribution =    -192.38205703 Ry
     hartree contribution      =     114.58639151 Ry
     xc contribution           =     -88.46773695 Ry
     ewald contribution        =    -198.35180508 Ry

     convergence has been achieved in  13 iterations

     Forces acting on atoms (cartesian axes, Ry/au):

     atom    1 type  1   force =    -0.00000000   -0.00000000   -0.00000000
     atom    2 type  2   force =     0.00000000    0.00000000    0.00000000

     Total force =     0.000000     Total SCF correction =     0.000000


     Computing stress (Cartesian axis) and pressure

          total   stress  (Ry/bohr**3)                   (kbar)     P=        2.94
   0.00002000  -0.00000000  -0.00000000            2.94       -0.00       -0.00
  -0.00000000   0.00002000   0.00000000           -0.00        2.94        0.00
  -0.00000000   0.00000000   0.00002000           -0.00        0.00        2.94


     BFGS Geometry Optimization
     Energy error            =      9.1E-06 Ry
     Gradient error          =      1.3E-31 Ry/Bohr
     Cell gradient error     =      2.9E+00 kbar

     number of scf cycles    =   1
     number of bfgs steps    =   0

     enthalpy           new  =    -364.6152075445 Ry

     new trust radius        =       0.0017459187 bohr
     new conv_thr            =       0.0000000010 Ry

     new unit-cell volume =    305.34644 a.u.^3 (    45.24767 Ang^3 )
     density =      5.30827 g/cm^3

CELL_PARAMETERS (alat= 10.68400000)
  -0.500249973   0.000000000   0.500249973
  -0.000000000   0.500249973   0.500249973
  -0.500249973   0.500249973   0.000000000

ATOMIC_POSITIONS (crystal)
Ga               0.0000000000       -0.0000000000        0.0000000000
As               0.2500000000        0.2500000000        0.2500000000



     Writing config-only to output data dir /home/sachs/software/q-e/tempdir/gaasPBEsol.save/ :
     XML data file
     NEW-OLD atomic charge density approx. for the potential
     New effective cutoffs (rho, wfc):  598.42   99.90

     total cpu time spent up to now is      412.4 secs

     per-process dynamical memory:    34.6 Mb

     Self-consistent Calculation

     iteration #  1     ecut=   100.00 Ry     beta= 0.70
     CG style diagonalization
     ethr =  1.00E-06,  avg # of iterations =  2.7

     Threshold (ethr) on eigenvalues was too large:
     Diagonalizing with lowered threshold

     CG style diagonalization
     ethr =  2.19E-09,  avg # of iterations =  4.6

     total cpu time spent up to now is      469.6 secs

     total energy              =    -364.61521495 Ry
     estimated scf accuracy    <       0.00000003 Ry

     iteration #  2     ecut=   100.00 Ry     beta= 0.70
     CG style diagonalization
     ethr =  9.32E-11,  avg # of iterations =  4.1

     total cpu time spent up to now is      500.2 secs

     total energy              =    -364.61521496 Ry
     estimated scf accuracy    <          2.5E-09 Ry

     iteration #  3     ecut=   100.00 Ry     beta= 0.70
     CG style diagonalization
     ethr =  8.87E-12,  avg # of iterations =  4.1

     total cpu time spent up to now is      530.6 secs

     End of self-consistent calculation

     Number of k-points >= 100: set verbosity='high' to print the bands.

     highest occupied level (ev):     8.6425

!    total energy              =    -364.61521496 Ry
     estimated scf accuracy    <          3.6E-10 Ry

     The total energy is the sum of the following terms:
     one-electron contribution =    -192.54374450 Ry
     hartree contribution      =     114.64738575 Ry
     xc contribution           =     -88.46616678 Ry
     ewald contribution        =    -198.25268942 Ry

     convergence has been achieved in   3 iterations

     Forces acting on atoms (cartesian axes, Ry/au):

     atom    1 type  1   force =     0.00000000    0.00000000    0.00000000
     atom    2 type  2   force =     0.00000000    0.00000000    0.00000000

     Total force =     0.000000     Total SCF correction =     0.000000


     Computing stress (Cartesian axis) and pressure

          total   stress  (Ry/bohr**3)                   (kbar)     P=        1.84
   0.00001251   0.00000000  -0.00000000            1.84        0.00       -0.00
   0.00000000   0.00001251   0.00000000            0.00        1.84        0.00
   0.00000000   0.00000000   0.00001251            0.00        0.00        1.84

     Energy error            =      7.4E-06 Ry
     Gradient error          =      0.0E+00 Ry/Bohr
     Cell gradient error     =      1.8E+00 kbar

     number of scf cycles    =   2
     number of bfgs steps    =   1

     enthalpy           old  =    -364.6152075445 Ry
     enthalpy           new  =    -364.6152149621 Ry

     CASE: enthalpy          _new < enthalpy          _old

     new trust radius        =       0.0019209905 bohr
     new conv_thr            =            1.0E-11 Ry

     new unit-cell volume =    305.85023 a.u.^3 (    45.32233 Ang^3 )
     density =      5.29953 g/cm^3

CELL_PARAMETERS (alat= 10.68400000)
  -0.500524943   0.000000000   0.500524943
  -0.000000000   0.500524943   0.500524943
  -0.500524943   0.500524943   0.000000000

ATOMIC_POSITIONS (crystal)
Ga               0.0000000000       -0.0000000000        0.0000000000
As               0.2500000000        0.2500000000        0.2500000000



     Writing config-only to output data dir /home/sachs/software/q-e/tempdir/gaasPBEsol.save/ :
     XML data file
     NEW-OLD atomic charge density approx. for the potential
     New effective cutoffs (rho, wfc):  597.76   99.79

     total cpu time spent up to now is      540.5 secs

     per-process dynamical memory:    34.5 Mb

     Self-consistent Calculation

     iteration #  1     ecut=   100.00 Ry     beta= 0.70
     CG style diagonalization
     ethr =  1.00E-06,  avg # of iterations =  3.0

     Threshold (ethr) on eigenvalues was too large:
     Diagonalizing with lowered threshold

     CG style diagonalization
     ethr =  1.79E-09,  avg # of iterations =  4.4

     total cpu time spent up to now is      599.0 secs

     total energy              =    -364.61521935 Ry
     estimated scf accuracy    <       0.00000003 Ry

     iteration #  2     ecut=   100.00 Ry     beta= 0.70
     CG style diagonalization
     ethr =  1.17E-10,  avg # of iterations =  3.9

     total cpu time spent up to now is      627.4 secs

     total energy              =    -364.61521936 Ry
     estimated scf accuracy    <          2.5E-09 Ry

     iteration #  3     ecut=   100.00 Ry     beta= 0.70
     CG style diagonalization
     ethr =  8.92E-12,  avg # of iterations =  4.2

     total cpu time spent up to now is      658.3 secs

     total energy              =    -364.61521936 Ry
     estimated scf accuracy    <          2.9E-10 Ry

     iteration #  4     ecut=   100.00 Ry     beta= 0.70
     CG style diagonalization
     ethr =  1.05E-12,  avg # of iterations =  3.6

     total cpu time spent up to now is      685.3 secs

     total energy              =    -364.61521936 Ry
     estimated scf accuracy    <          1.7E-11 Ry

     iteration #  5     ecut=   100.00 Ry     beta= 0.70
     CG style diagonalization
     ethr =  1.00E-13,  avg # of iterations =  4.4

     total cpu time spent up to now is      718.0 secs

     End of self-consistent calculation

     Number of k-points >= 100: set verbosity='high' to print the bands.

     highest occupied level (ev):     8.6191

!    total energy              =    -364.61521936 Ry
     estimated scf accuracy    <          3.0E-12 Ry

     The total energy is the sum of the following terms:
     one-electron contribution =    -192.72155452 Ry
     hartree contribution      =     114.71457841 Ry
     xc contribution           =     -88.46446670 Ry
     ewald contribution        =    -198.14377654 Ry

     convergence has been achieved in   5 iterations

     Forces acting on atoms (cartesian axes, Ry/au):

     atom    1 type  1   force =    -0.00000000    0.00000000    0.00000000
     atom    2 type  2   force =     0.00000000   -0.00000000   -0.00000000

     Total force =     0.000000     Total SCF correction =     0.000000


     Computing stress (Cartesian axis) and pressure

          total   stress  (Ry/bohr**3)                   (kbar)     P=        0.72
   0.00000486  -0.00000000   0.00000000            0.72       -0.00        0.00
  -0.00000000   0.00000486   0.00000000           -0.00        0.72        0.00
   0.00000000  -0.00000000   0.00000486            0.00       -0.00        0.72

     Energy error            =      4.4E-06 Ry
     Gradient error          =      7.9E-31 Ry/Bohr
     Cell gradient error     =      7.2E-01 kbar

     number of scf cycles    =   3
     number of bfgs steps    =   2

     enthalpy           old  =    -364.6152149621 Ry
     enthalpy           new  =    -364.6152193602 Ry

     CASE: enthalpy          _new < enthalpy          _old

     new trust radius        =       0.0012238833 bohr
     new conv_thr            =            1.0E-11 Ry

     new unit-cell volume =    306.17140 a.u.^3 (    45.36992 Ang^3 )
     density =      5.29397 g/cm^3

CELL_PARAMETERS (alat= 10.68400000)
  -0.500700082   0.000000000   0.500700082
  -0.000000000   0.500700082   0.500700082
  -0.500700082   0.500700082   0.000000000

ATOMIC_POSITIONS (crystal)
Ga               0.0000000000        0.0000000000       -0.0000000000
As               0.2500000000        0.2500000000        0.2500000000



     Writing config-only to output data dir /home/sachs/software/q-e/tempdir/gaasPBEsol.save/ :
     XML data file
     NEW-OLD atomic charge density approx. for the potential
     New effective cutoffs (rho, wfc):  597.34   99.72

     total cpu time spent up to now is      728.0 secs

     per-process dynamical memory:    34.5 Mb

     Self-consistent Calculation

     iteration #  1     ecut=   100.00 Ry     beta= 0.70
     CG style diagonalization
     ethr =  1.00E-06,  avg # of iterations =  2.7

     Threshold (ethr) on eigenvalues was too large:
     Diagonalizing with lowered threshold

     CG style diagonalization
     ethr =  1.07E-09,  avg # of iterations =  4.6

     total cpu time spent up to now is      785.2 secs

     total energy              =    -364.61522011 Ry
     estimated scf accuracy    <       0.00000001 Ry

     iteration #  2     ecut=   100.00 Ry     beta= 0.70
     CG style diagonalization
     ethr =  4.73E-11,  avg # of iterations =  4.1

     total cpu time spent up to now is      815.2 secs

     total energy              =    -364.61522012 Ry
     estimated scf accuracy    <          1.3E-09 Ry

     iteration #  3     ecut=   100.00 Ry     beta= 0.70
     CG style diagonalization
     ethr =  4.72E-12,  avg # of iterations =  4.1

     total cpu time spent up to now is      845.4 secs

     total energy              =    -364.61522012 Ry
     estimated scf accuracy    <          2.3E-10 Ry

     iteration #  4     ecut=   100.00 Ry     beta= 0.70
     CG style diagonalization
     ethr =  8.19E-13,  avg # of iterations =  3.6

     total cpu time spent up to now is      872.1 secs

     End of self-consistent calculation

     Number of k-points >= 100: set verbosity='high' to print the bands.

     highest occupied level (ev):     8.6042

!    total energy              =    -364.61522012 Ry
     estimated scf accuracy    <          2.2E-12 Ry

     The total energy is the sum of the following terms:
     one-electron contribution =    -192.83467082 Ry
     hartree contribution      =     114.75729649 Ry
     xc contribution           =     -88.46337735 Ry
     ewald contribution        =    -198.07446843 Ry

     convergence has been achieved in   4 iterations

     Forces acting on atoms (cartesian axes, Ry/au):

     atom    1 type  1   force =     0.00000000    0.00000000    0.00000000
     atom    2 type  2   force =    -0.00000000    0.00000000   -0.00000000

     Total force =     0.000000     Total SCF correction =     0.000000


     Computing stress (Cartesian axis) and pressure

          total   stress  (Ry/bohr**3)                   (kbar)     P=       -0.02
  -0.00000015  -0.00000000   0.00000000           -0.02       -0.00        0.00
  -0.00000000  -0.00000015   0.00000000           -0.00       -0.02        0.00
  -0.00000000  -0.00000000  -0.00000015           -0.00       -0.00       -0.02

     Energy error            =      7.6E-07 Ry
     Gradient error          =      2.1E-30 Ry/Bohr
     Cell gradient error     =      2.2E-02 kbar

     bfgs converged in   4 scf cycles and   3 bfgs steps
     (criteria: energy <  1.0E-04 Ry, force <  1.0E-06 Ry/Bohr, cell <  5.0E-01 kbar)

     End of BFGS Geometry Optimization

     Final enthalpy           =    -364.6152201189 Ry

     File /home/sachs/software/q-e/tempdir/gaasPBEsol.bfgs deleted, as requested
Begin final coordinates
     new unit-cell volume =    306.17140 a.u.^3 (    45.36992 Ang^3 )
     density =      5.29397 g/cm^3

CELL_PARAMETERS (alat= 10.68400000)
  -0.500700082   0.000000000   0.500700082
  -0.000000000   0.500700082   0.500700082
  -0.500700082   0.500700082   0.000000000

ATOMIC_POSITIONS (crystal)
Ga               0.0000000000        0.0000000000       -0.0000000000
As               0.2500000000        0.2500000000        0.2500000000
End final coordinates



     Writing config-only to output data dir /home/sachs/software/q-e/tempdir/gaasPBEsol.save/ :
     XML data file

     Final scf calculation at the relaxed structure.
     The G-vectors are recalculated for the final unit cell
     Results may differ from those at the preceding step.

     Parallelization info
     --------------------
     sticks:   dense  smooth     PW     G-vecs:    dense   smooth      PW
     Min          99      65     18                 3175     1713     266
     Max         101      66     19                 3177     1716     269
     Sum        2383    1573    451                76225    41151    6423

     Using Slab Decomposition



     bravais-lattice index     =            2
     lattice parameter (alat)  =      10.6840  a.u.
     unit-cell volume          =     306.1714 (a.u.)^3
     number of atoms/cell      =            2
     number of atomic types    =            2
     number of electrons       =        28.00
     number of Kohn-Sham states=           14
     kinetic-energy cutoff     =     100.0000  Ry
     charge density cutoff     =     600.0000  Ry
     scf convergence threshold =      1.0E-11
     mixing beta               =       0.7000
     number of iterations used =            8  plain     mixing
     press convergence thresh. =      5.0E-01
     Exchange-correlation= PBESOL
                           (   1   4  10   8   0   0   0)

     celldm(1)=  10.684000  celldm(2)=   0.000000  celldm(3)=   0.000000
     celldm(4)=   0.000000  celldm(5)=   0.000000  celldm(6)=   0.000000

     crystal axes: (cart. coord. in units of alat)
               a(1) = (  -0.500700   0.000000   0.500700 )  
               a(2) = (  -0.000000   0.500700   0.500700 )  
               a(3) = (  -0.500700   0.500700   0.000000 )  

     reciprocal axes: (cart. coord. in units 2 pi/alat)
               b(1) = ( -0.998602 -0.998602  0.998602 )  
               b(2) = (  0.998602  0.998602  0.998602 )  
               b(3) = ( -0.998602  0.998602 -0.998602 )  


     PseudoPot. # 1 for Ga read from file:
     /home/sachs/software/q-e/Pseudofolder/nc-sr-04_pbesol_standard_upf/Ga.upf
     MD5 check sum: 3b2828b26f3ae6b9eab8bf4a0fe74f9e
     Pseudo is Norm-conserving + core correction, Zval = 13.0
     Generated using ONCVPSP code by D. R. Hamann
     Using radial grid of 1902 points,  6 beta functions with: 
                l(1) =   0
                l(2) =   0
                l(3) =   1
                l(4) =   1
                l(5) =   2
                l(6) =   2

     PseudoPot. # 2 for As read from file:
     /home/sachs/software/q-e/Pseudofolder/nc-sr-04_pbesol_standard_upf/As.upf
     MD5 check sum: 8e1cf9692a75f2b458f16819c50a4a5a
     Pseudo is Norm-conserving + core correction, Zval = 15.0
     Generated using ONCVPSP code by D. R. Hamann
     Using radial grid of 1342 points,  6 beta functions with: 
                l(1) =   0
                l(2) =   0
                l(3) =   1
                l(4) =   1
                l(5) =   2
                l(6) =   2

     atomic species   valence    mass     pseudopotential
     Ga               13.00    69.72300     Ga( 1.00)
     As               15.00    74.92100     As( 1.00)

     24 Sym. Ops. (no inversion) found



   Cartesian axes

     site n.     atom                  positions (alat units)
         1        Ga     tau(   1) = (  -0.0000000   0.0000000   0.0000000  )
         2        As     tau(   2) = (  -0.2503500   0.2503500   0.2503500  )

     number of k points=   455

     Number of k-points >= 100: set verbosity='high' to print them.

     Dense  grid:    76225 G-vectors     FFT dimensions: (  60,  60,  60)

     Smooth grid:    41151 G-vectors     FFT dimensions: (  50,  50,  50)

     Estimated max dynamical RAM per process >      31.24 MB

     Estimated total dynamical RAM >     749.86 MB

     Initial potential from superposition of free atoms

     starting charge      27.9973, renormalised to      28.0000
     Starting wfcs are   18 randomized atomic wfcs

     total cpu time spent up to now is      890.4 secs

     per-process dynamical memory:    33.8 Mb

     Self-consistent Calculation

     iteration #  1     ecut=   100.00 Ry     beta= 0.70
     CG style diagonalization
     c_bands:  1 eigenvalues not converged
     c_bands:  1 eigenvalues not converged
     c_bands:  1 eigenvalues not converged
     c_bands:  1 eigenvalues not converged
     c_bands:  1 eigenvalues not converged
     c_bands:  1 eigenvalues not converged
     ethr =  1.00E-06,  avg # of iterations =  8.3

     total cpu time spent up to now is      953.1 secs

     total energy              =    -364.60616348 Ry
     estimated scf accuracy    <       0.04520059 Ry

     iteration #  2     ecut=   100.00 Ry     beta= 0.70
     CG style diagonalization
     ethr =  1.61E-04,  avg # of iterations =  3.8

     total cpu time spent up to now is      981.3 secs

     total energy              =    -364.61305011 Ry
     estimated scf accuracy    <       0.00755188 Ry

     iteration #  3     ecut=   100.00 Ry     beta= 0.70
     CG style diagonalization
     ethr =  2.70E-05,  avg # of iterations =  3.7

     total cpu time spent up to now is     1008.6 secs

     total energy              =    -364.61505018 Ry
     estimated scf accuracy    <       0.00041798 Ry

     iteration #  4     ecut=   100.00 Ry     beta= 0.70
     CG style diagonalization
     ethr =  1.49E-06,  avg # of iterations =  4.8

     total cpu time spent up to now is     1043.8 secs

     total energy              =    -364.61521322 Ry
     estimated scf accuracy    <       0.00008658 Ry

     iteration #  5     ecut=   100.00 Ry     beta= 0.70
     CG style diagonalization
     ethr =  3.09E-07,  avg # of iterations =  3.3

     total cpu time spent up to now is     1068.5 secs

     total energy              =    -364.61521057 Ry
     estimated scf accuracy    <       0.00001616 Ry

     iteration #  6     ecut=   100.00 Ry     beta= 0.70
     CG style diagonalization
     ethr =  5.77E-08,  avg # of iterations =  5.0

     total cpu time spent up to now is     1105.3 secs

     total energy              =    -364.61522012 Ry
     estimated scf accuracy    <       0.00000543 Ry

     iteration #  7     ecut=   100.00 Ry     beta= 0.70
     CG style diagonalization
     ethr =  1.94E-08,  avg # of iterations =  3.3

     total cpu time spent up to now is     1129.7 secs

     total energy              =    -364.61522000 Ry
     estimated scf accuracy    <       0.00000108 Ry

     iteration #  8     ecut=   100.00 Ry     beta= 0.70
     CG style diagonalization
     ethr =  3.87E-09,  avg # of iterations =  4.8

     total cpu time spent up to now is     1165.0 secs

     total energy              =    -364.61522046 Ry
     estimated scf accuracy    <          2.2E-09 Ry

     iteration #  9     ecut=   100.00 Ry     beta= 0.70
     CG style diagonalization
     ethr =  7.95E-12,  avg # of iterations =  5.7

     total cpu time spent up to now is     1206.9 secs

     total energy              =    -364.61522047 Ry
     estimated scf accuracy    <          5.8E-10 Ry

     iteration # 10     ecut=   100.00 Ry     beta= 0.70
     CG style diagonalization
     ethr =  2.08E-12,  avg # of iterations =  5.1

     total cpu time spent up to now is     1244.6 secs

     total energy              =    -364.61522047 Ry
     estimated scf accuracy    <          3.7E-09 Ry

     iteration # 11     ecut=   100.00 Ry     beta= 0.70
     CG style diagonalization
     ethr =  2.08E-12,  avg # of iterations =  4.2

     total cpu time spent up to now is     1275.8 secs

     total energy              =    -364.61522047 Ry
     estimated scf accuracy    <          8.7E-10 Ry

     iteration # 12     ecut=   100.00 Ry     beta= 0.70
     CG style diagonalization
     ethr =  2.08E-12,  avg # of iterations =  3.8

     total cpu time spent up to now is     1303.8 secs

     total energy              =    -364.61522047 Ry
     estimated scf accuracy    <          6.3E-11 Ry

     iteration # 13     ecut=   100.00 Ry     beta= 0.70
     CG style diagonalization
     ethr =  2.25E-13,  avg # of iterations =  3.9

     total cpu time spent up to now is     1332.4 secs

     total energy              =    -364.61522047 Ry
     estimated scf accuracy    <          3.7E-11 Ry

     iteration # 14     ecut=   100.00 Ry     beta= 0.70
     CG style diagonalization
     ethr =  1.32E-13,  avg # of iterations =  3.0

     total cpu time spent up to now is     1354.6 secs

     total energy              =    -364.61522047 Ry
     estimated scf accuracy    <          3.0E-11 Ry

     iteration # 15     ecut=   100.00 Ry     beta= 0.70
     CG style diagonalization
     ethr =  1.07E-13,  avg # of iterations =  4.0

     total cpu time spent up to now is     1383.7 secs

     End of self-consistent calculation

     Number of k-points >= 100: set verbosity='high' to print the bands.

     highest occupied level (ev):     8.6042

!    total energy              =    -364.61522047 Ry
     estimated scf accuracy    <          2.2E-12 Ry

     The total energy is the sum of the following terms:
     one-electron contribution =    -192.83468084 Ry
     hartree contribution      =     114.75730944 Ry
     xc contribution           =     -88.46338065 Ry
     ewald contribution        =    -198.07446843 Ry

     convergence has been achieved in  15 iterations

     Forces acting on atoms (cartesian axes, Ry/au):

     atom    1 type  1   force =    -0.00000000    0.00000000    0.00000000
     atom    2 type  2   force =     0.00000000    0.00000000   -0.00000000

     Total force =     0.000000     Total SCF correction =     0.000000


     Computing stress (Cartesian axis) and pressure

          total   stress  (Ry/bohr**3)                   (kbar)     P=       -0.01
  -0.00000008   0.00000000   0.00000000           -0.01        0.00        0.00
  -0.00000000  -0.00000008   0.00000000           -0.00       -0.01        0.00
  -0.00000000   0.00000000  -0.00000008           -0.00        0.00       -0.01


     Writing all to output data dir /home/sachs/software/q-e/tempdir/gaasPBEsol.save/ :
     XML data file, charge density, pseudopotentials, collected wavefunctions

     init_run     :     16.76s CPU     17.12s WALL (       2 calls)
     electrons    :   1277.86s CPU   1315.18s WALL (       5 calls)
     update_pot   :      0.08s CPU      0.09s WALL (       3 calls)
     forces       :      9.64s CPU      9.67s WALL (       5 calls)
     stress       :     38.88s CPU     38.99s WALL (       5 calls)

     Called by init_run:
     wfcinit      :     15.75s CPU     16.02s WALL (       2 calls)
     potinit      :      0.20s CPU      0.21s WALL (       2 calls)
     hinit0       :      0.41s CPU      0.44s WALL (       2 calls)

     Called by electrons:
     c_bands      :   1172.48s CPU   1207.70s WALL (      44 calls)
     sum_band     :    104.36s CPU    106.11s WALL (      44 calls)
     v_of_rho     :      0.86s CPU      0.96s WALL (      45 calls)
     mix_rho      :      0.11s CPU      0.13s WALL (      44 calls)

     Called by c_bands:
     init_us_2    :     17.72s CPU     18.29s WALL (   45500 calls)
     ccgdiagg     :    971.43s CPU   1003.09s WALL (   20020 calls)
     wfcrot       :    202.54s CPU    205.68s WALL (   16835 calls)

     Called by *cgdiagg:
     h_psi        :    929.00s CPU    956.83s WALL (  924570 calls)

     Called by h_psi:
     h_psi:calbec :    117.23s CPU    120.63s WALL (  924570 calls)
     vloc_psi     :    745.14s CPU    767.95s WALL (  924570 calls)
                                        0.00s GPU  (  924570 calls)
     add_vuspsi   :     56.38s CPU     57.99s WALL (  924570 calls)
     hs_1psi      :    753.65s CPU    778.34s WALL (  907735 calls)
     s_1psi       :     73.55s CPU     75.35s WALL (  907735 calls)

     General routines
     calbec       :    210.22s CPU    216.11s WALL ( 1870980 calls)
     fft          :      0.81s CPU      0.95s WALL (     657 calls)
     ffts         :      0.16s CPU      0.17s WALL (      89 calls)
     fftw         :    777.85s CPU    800.44s WALL ( 2574410 calls)
     interpolate  :      0.18s CPU      0.19s WALL (      45 calls)

     Parallel routines

     PWSCF        :  22m37.89s CPU  23m25.76s WALL


   This run was terminated on:  20: 3:32  18Feb2026            

=------------------------------------------------------------------------------=
   JOB DONE.
=------------------------------------------------------------------------------=
