
     Program PWSCF v.7.5 starts on 26Jan2026 at 22:53:30 

     This program is part of the open-source Quantum ESPRESSO suite
     for quantum simulation of materials; please cite
         "P. Giannozzi et al., J. Phys.:Condens. Matter 21 395502 (2009);
         "P. Giannozzi et al., J. Phys.:Condens. Matter 29 465901 (2017);
         "P. Giannozzi et al., J. Chem. Phys. 152 154105 (2020);
          URL http://www.quantum-espresso.org", 
     in publications or presentations arising from this work. More details at
     http://www.quantum-espresso.org/quote

     Parallel version (MPI), running on     1 processors

     MPI processes distributed on     1 nodes
     25464 MiB available memory on the printing compute node when the environment starts

     Waiting for input...
     Reading input from standard input

     Current dimensions of program PWSCF are:
     Max number of different atomic species (ntypx) = 10
     Max number of k-points (npk) =  40000
     Max angular momentum in pseudopotentials (lmaxx) =  4
     file In.pbe-dn-rrkjus_psl.0.2.2.UPF: wavefunction(s)  5S renormalized
     Message from routine set_cutoff:
     ecutrho < 4*ecutwfc, are you sure?

     Subspace diagonalization in iterative solution of the eigenvalue problem:
     a serial algorithm will be used


     G-vector sticks info
     --------------------
     sticks:   dense  smooth     PW     G-vecs:    dense   smooth      PW
     Sum         955     955    595                19579    19579    9721

     Using Slab Decomposition



     bravais-lattice index     =            2
     lattice parameter (alat)  =      11.4291  a.u.
     unit-cell volume          =     373.2261 (a.u.)^3
     number of atoms/cell      =            2
     number of atomic types    =            2
     number of electrons       =        18.00
     number of Kohn-Sham states=            9
     kinetic-energy cutoff     =     118.8889  Ry
     charge density cutoff     =     212.0000  Ry
     scf convergence threshold =      1.0E-06
     mixing beta               =       0.7000
     number of iterations used =            8  plain     mixing
     Exchange-correlation= PBE
                           (   1   4   3   4   0   0   0)

     celldm(1)=  11.429064  celldm(2)=   0.000000  celldm(3)=   0.000000
     celldm(4)=   0.000000  celldm(5)=   0.000000  celldm(6)=   0.000000

     crystal axes: (cart. coord. in units of alat)
               a(1) = (  -0.500000   0.000000   0.500000 )  
               a(2) = (   0.000000   0.500000   0.500000 )  
               a(3) = (  -0.500000   0.500000   0.000000 )  

     reciprocal axes: (cart. coord. in units 2 pi/alat)
               b(1) = ( -1.000000 -1.000000  1.000000 )  
               b(2) = (  1.000000  1.000000  1.000000 )  
               b(3) = ( -1.000000  1.000000 -1.000000 )  


     PseudoPot. # 1 for In read from file:
     /home/nico-sachs/source/q-e/SSSP_1.3.0_PBE_efficiency/In.pbe-dn-rrkjus_psl.0.2.2.UPF
     MD5 check sum: 25e7c42c3b55b68f4bf926be2e7201a4
     Pseudo is Ultrasoft + core correction, Zval = 13.0
     Generated using "atomic" code by A. Dal Corso  v.5.0.99 svn rev. 10869
     Using radial grid of 1241 points,  6 beta functions with: 
                l(1) =   0
                l(2) =   0
                l(3) =   1
                l(4) =   1
                l(5) =   2
                l(6) =   2
     Q(r) pseudized with 0 coefficients 


     PseudoPot. # 2 for As read from file:
     /home/nico-sachs/source/q-e/SSSP_1.3.0_PBE_efficiency/As.pbe-n-rrkjus_psl.0.2.UPF
     MD5 check sum: 767315de957beeeb34f87d97bf945c8f
     Pseudo is Ultrasoft + core correction, Zval =  5.0
     Generated using "atomic" code by A. Dal Corso  v.5.0.99 svn rev. 10869
     Using radial grid of 1209 points,  4 beta functions with: 
                l(1) =   0
                l(2) =   0
                l(3) =   1
                l(4) =   1
     Q(r) pseudized with 0 coefficients 


     atomic species   valence    mass     pseudopotential
     In               13.00   114.81800     In( 1.00)
     As                5.00    74.92100     As( 1.00)

     24 Sym. Ops. (no inversion) found



   Cartesian axes

     site n.     atom                  positions (alat units)
         1        In     tau(   1) = (   0.0000000   0.0000000   0.0000000  )
         2        As     tau(   2) = (  -0.2500000   0.2500000   0.2500000  )

     number of k points=    60
                       cart. coord. in units 2pi/alat
        k(    1) = (   0.0625000   0.0625000   0.0625000), wk =   0.0078125
        k(    2) = (   0.0625000   0.0625000   0.1875000), wk =   0.0234375
        k(    3) = (   0.0625000   0.0625000   0.3125000), wk =   0.0234375
        k(    4) = (   0.0625000   0.0625000   0.4375000), wk =   0.0234375
        k(    5) = (   0.0625000   0.0625000   0.5625000), wk =   0.0234375
        k(    6) = (   0.0625000   0.0625000   0.6875000), wk =   0.0234375
        k(    7) = (   0.0625000   0.0625000   0.8125000), wk =   0.0234375
        k(    8) = (   0.0625000   0.0625000   0.9375000), wk =   0.0234375
        k(    9) = (   0.0625000   0.1875000   0.1875000), wk =   0.0234375
        k(   10) = (   0.0625000   0.1875000   0.3125000), wk =   0.0468750
        k(   11) = (   0.0625000   0.1875000   0.4375000), wk =   0.0468750
        k(   12) = (   0.0625000   0.1875000   0.5625000), wk =   0.0468750
        k(   13) = (   0.0625000   0.1875000   0.6875000), wk =   0.0468750
        k(   14) = (   0.0625000   0.1875000   0.8125000), wk =   0.0468750
        k(   15) = (   0.0625000   0.1875000   0.9375000), wk =   0.0468750
        k(   16) = (   0.0625000   0.3125000   0.3125000), wk =   0.0234375
        k(   17) = (   0.0625000   0.3125000   0.4375000), wk =   0.0468750
        k(   18) = (   0.0625000   0.3125000   0.5625000), wk =   0.0468750
        k(   19) = (   0.0625000   0.3125000   0.6875000), wk =   0.0468750
        k(   20) = (   0.0625000   0.3125000   0.8125000), wk =   0.0468750
        k(   21) = (   0.0625000   0.3125000   0.9375000), wk =   0.0468750
        k(   22) = (   0.0625000   0.4375000   0.4375000), wk =   0.0234375
        k(   23) = (   0.0625000   0.4375000   0.5625000), wk =   0.0468750
        k(   24) = (   0.0625000   0.4375000   0.6875000), wk =   0.0468750
        k(   25) = (   0.0625000   0.4375000   0.8125000), wk =   0.0468750
        k(   26) = (   0.0625000   0.4375000   0.9375000), wk =   0.0468750
        k(   27) = (   0.0625000   0.5625000   0.5625000), wk =   0.0234375
        k(   28) = (   0.0625000   0.5625000   0.6875000), wk =   0.0468750
        k(   29) = (   0.0625000   0.5625000   0.8125000), wk =   0.0468750
        k(   30) = (   0.0625000   0.6875000   0.6875000), wk =   0.0234375
        k(   31) = (   0.0625000   0.6875000   0.8125000), wk =   0.0468750
        k(   32) = (   0.0625000   0.8125000   0.8125000), wk =   0.0234375
        k(   33) = (   0.1875000   0.1875000   0.1875000), wk =   0.0078125
        k(   34) = (   0.1875000   0.1875000   0.3125000), wk =   0.0234375
        k(   35) = (   0.1875000   0.1875000   0.4375000), wk =   0.0234375
        k(   36) = (   0.1875000   0.1875000   0.5625000), wk =   0.0234375
        k(   37) = (   0.1875000   0.1875000   0.6875000), wk =   0.0234375
        k(   38) = (   0.1875000   0.1875000   0.8125000), wk =   0.0234375
        k(   39) = (   0.1875000   0.3125000   0.3125000), wk =   0.0234375
        k(   40) = (   0.1875000   0.3125000   0.4375000), wk =   0.0468750
        k(   41) = (   0.1875000   0.3125000   0.5625000), wk =   0.0468750
        k(   42) = (   0.1875000   0.3125000   0.6875000), wk =   0.0468750
        k(   43) = (   0.1875000   0.3125000   0.8125000), wk =   0.0468750
        k(   44) = (   0.1875000   0.4375000   0.4375000), wk =   0.0234375
        k(   45) = (   0.1875000   0.4375000   0.5625000), wk =   0.0468750
        k(   46) = (   0.1875000   0.4375000   0.6875000), wk =   0.0468750
        k(   47) = (   0.1875000   0.4375000   0.8125000), wk =   0.0468750
        k(   48) = (   0.1875000   0.5625000   0.5625000), wk =   0.0234375
        k(   49) = (   0.1875000   0.5625000   0.6875000), wk =   0.0468750
        k(   50) = (   0.1875000   0.6875000   0.6875000), wk =   0.0234375
        k(   51) = (   0.3125000   0.3125000   0.3125000), wk =   0.0078125
        k(   52) = (   0.3125000   0.3125000   0.4375000), wk =   0.0234375
        k(   53) = (   0.3125000   0.3125000   0.5625000), wk =   0.0234375
        k(   54) = (   0.3125000   0.3125000   0.6875000), wk =   0.0234375
        k(   55) = (   0.3125000   0.4375000   0.4375000), wk =   0.0234375
        k(   56) = (   0.3125000   0.4375000   0.5625000), wk =   0.0468750
        k(   57) = (   0.3125000   0.4375000   0.6875000), wk =   0.0468750
        k(   58) = (   0.3125000   0.5625000   0.5625000), wk =   0.0234375
        k(   59) = (   0.4375000   0.4375000   0.4375000), wk =   0.0078125
        k(   60) = (   0.4375000   0.4375000   0.5625000), wk =   0.0234375

     Dense  grid:    19579 G-vectors     FFT dimensions: (  40,  40,  40)

     Estimated max dynamical RAM per process >     147.20 MB

     Check: negative core charge=   -0.000002

     Initial potential from superposition of free atoms

     starting charge      17.9960, renormalised to      18.0000
     Starting wfcs are   13 randomized atomic wfcs

     total cpu time spent up to now is        5.4 secs

     Self-consistent Calculation

     iteration #  1     ecut=   118.89 Ry     beta= 0.70
     CG style diagonalization
     ethr =  1.00E-02,  avg # of iterations =  2.0

     Threshold (ethr) on eigenvalues was too large:
     Diagonalizing with lowered threshold

     CG style diagonalization
     ethr =  3.67E-04,  avg # of iterations =  2.9

     total cpu time spent up to now is       22.1 secs

     total energy              =    -163.05436336 Ry
     estimated scf accuracy    <       0.06788374 Ry

     iteration #  2     ecut=   118.89 Ry     beta= 0.70
     CG style diagonalization
     ethr =  3.77E-04,  avg # of iterations =  3.6

     total cpu time spent up to now is       33.0 secs

     total energy              =    -163.06966607 Ry
     estimated scf accuracy    <       0.01609877 Ry

     iteration #  3     ecut=   118.89 Ry     beta= 0.70
     CG style diagonalization
     ethr =  8.94E-05,  avg # of iterations =  3.6

     total cpu time spent up to now is       43.8 secs

     total energy              =    -163.07420858 Ry
     estimated scf accuracy    <       0.00042302 Ry

     iteration #  4     ecut=   118.89 Ry     beta= 0.70
     CG style diagonalization
     ethr =  2.35E-06,  avg # of iterations =  5.1

     total cpu time spent up to now is       58.8 secs

     total energy              =    -163.07456494 Ry
     estimated scf accuracy    <       0.00006238 Ry

     iteration #  5     ecut=   118.89 Ry     beta= 0.70
     CG style diagonalization
     ethr =  3.47E-07,  avg # of iterations =  4.0

     total cpu time spent up to now is       70.8 secs

     total energy              =    -163.07456483 Ry
     estimated scf accuracy    <       0.00003135 Ry

     iteration #  6     ecut=   118.89 Ry     beta= 0.70
     CG style diagonalization
     ethr =  1.74E-07,  avg # of iterations =  3.5

     total cpu time spent up to now is       81.4 secs

     total energy              =    -163.07456654 Ry
     estimated scf accuracy    <       0.00000376 Ry

     iteration #  7     ecut=   118.89 Ry     beta= 0.70
     CG style diagonalization
     ethr =  2.09E-08,  avg # of iterations =  5.3

     total cpu time spent up to now is       97.3 secs

     End of self-consistent calculation

          k = 0.0625 0.0625 0.0625 (  8126 PWs)   bands (ev):

    -7.8933  -7.8866  -7.8866  -7.7636  -7.7636  -5.2854   5.5669   6.4787
     6.4787

          k = 0.0625 0.0625 0.1875 (  8140 PWs)   bands (ev):

    -7.9085  -7.8817  -7.8810  -7.7657  -7.7618  -5.1785   4.8112   6.2029
     6.2584

          k = 0.0625 0.0625 0.3125 (  8141 PWs)   bands (ev):

    -7.9362  -7.8713  -7.8705  -7.7701  -7.7583  -4.9719   3.9777   5.7817
     5.7968

          k = 0.0625 0.0625 0.4375 (  8154 PWs)   bands (ev):

    -7.9696  -7.8573  -7.8565  -7.7763  -7.7539  -4.6791   3.1559   5.2990
     5.3334

          k = 0.0625 0.0625 0.5625 (  8173 PWs)   bands (ev):

    -8.0030  -7.8419  -7.8410  -7.7836  -7.7492  -4.3219   2.3727   4.8482
     4.9266

          k = 0.0625 0.0625 0.6875 (  8161 PWs)   bands (ev):

    -8.0316  -7.8274  -7.8264  -7.7906  -7.7450  -3.9351   1.6625   4.4856
     4.5983

          k = 0.0625 0.0625 0.8125 (  8168 PWs)   bands (ev):

    -8.0524  -7.8163  -7.8150  -7.7961  -7.7419  -3.5797   1.0880   4.2339
     4.3697

          k = 0.0625 0.0625 0.9375 (  8182 PWs)   bands (ev):

    -8.0632  -7.8105  -7.8087  -7.7988  -7.7402  -3.3530   0.7502   4.1054
     4.2527

          k = 0.0625 0.1875 0.1875 (  8133 PWs)   bands (ev):

    -7.9186  -7.8805  -7.8768  -7.7654  -7.7618  -5.0748   4.2309   5.9298
     6.3710

          k = 0.0625 0.1875 0.3125 (  8149 PWs)   bands (ev):

    -7.9417  -7.8725  -7.8684  -7.7683  -7.7589  -4.8745   3.5288   5.4858
     6.0684

          k = 0.0625 0.1875 0.4375 (  8160 PWs)   bands (ev):

    -7.9717  -7.8599  -7.8566  -7.7737  -7.7546  -4.5916   2.8275   5.0145
     5.5634

          k = 0.0625 0.1875 0.5625 (  8164 PWs)   bands (ev):

    -8.0021  -7.8463  -7.8423  -7.7801  -7.7501  -4.2483   2.1605   4.5838
     5.0582

          k = 0.0625 0.1875 0.6875 (  8171 PWs)   bands (ev):

    -8.0284  -7.8337  -7.8281  -7.7864  -7.7465  -3.8806   1.5560   4.2290
     4.6397

          k = 0.0625 0.1875 0.8125 (  8177 PWs)   bands (ev):

    -8.0475  -7.8236  -7.8172  -7.7911  -7.7442  -3.5476   1.0662   3.9742
     4.3499

          k = 0.0625 0.1875 0.9375 (  8166 PWs)   bands (ev):

    -8.0575  -7.8180  -7.8115  -7.7933  -7.7431  -3.3386   0.7786   3.8402
     4.2038

          k = 0.0625 0.3125 0.3125 (  8151 PWs)   bands (ev):

    -7.9562  -7.8693  -7.8639  -7.7670  -7.7590  -4.6871   2.9481   5.0398
     6.1224

          k = 0.0625 0.3125 0.4375 (  8167 PWs)   bands (ev):

    -7.9783  -7.8605  -7.8562  -7.7695  -7.7563  -4.4245   2.3698   4.5825
     5.7793

          k = 0.0625 0.3125 0.5625 (  8165 PWs)   bands (ev):

    -8.0025  -7.8511  -7.8437  -7.7744  -7.7527  -4.1105   1.8385   4.1827
     5.2473

          k = 0.0625 0.3125 0.6875 (  8182 PWs)   bands (ev):

    -8.0243  -7.8421  -7.8300  -7.7796  -7.7500  -3.7816   1.3789   3.8757
     4.7134

          k = 0.0625 0.3125 0.8125 (  8181 PWs)   bands (ev):

    -8.0403  -7.8343  -7.8192  -7.7837  -7.7486  -3.4931   1.0228   3.6790
     4.2873

          k = 0.0625 0.3125 0.9375 (  8179 PWs)   bands (ev):

    -8.0487  -7.8296  -7.8137  -7.7857  -7.7481  -3.3181   0.8207   3.5921
     4.0447

          k = 0.0625 0.4375 0.4375 (  8159 PWs)   bands (ev):

    -7.9909  -7.8550  -7.8544  -7.7662  -7.7583  -4.1944   1.9102   4.1501
     5.7271

          k = 0.0625 0.4375 0.5625 (  8169 PWs)   bands (ev):

    -8.0073  -7.8512  -7.8437  -7.7680  -7.7573  -3.9266   1.5058   3.7894
     5.3552

          k = 0.0625 0.4375 0.6875 (  8175 PWs)   bands (ev):

    -8.0232  -7.8466  -7.8308  -7.7727  -7.7550  -3.6573   1.1853   3.5409
     4.8189

          k = 0.0625 0.4375 0.8125 (  8187 PWs)   bands (ev):

    -8.0354  -7.8418  -7.8203  -7.7770  -7.7536  -3.4329   0.9644   3.4298
     4.2937

          k = 0.0625 0.4375 0.9375 (  8182 PWs)   bands (ev):

    -8.0419  -7.8386  -7.8147  -7.7793  -7.7530  -3.3035   0.8520   3.4500
     3.9205

          k = 0.0625 0.5625 0.5625 (  8183 PWs)   bands (ev):

    -8.0165  -7.8473  -7.8395  -7.7640  -7.7616  -3.7229   1.2238   3.4807
     5.2500

          k = 0.0625 0.5625 0.6875 (  8184 PWs)   bands (ev):

    -8.0275  -7.8440  -7.8297  -7.7706  -7.7574  -3.5312   1.0218   3.3044
     4.8860

          k = 0.0625 0.5625 0.8125 (  8186 PWs)   bands (ev):

    -8.0368  -7.8409  -7.8200  -7.7763  -7.7545  -3.3834   0.9030   3.2939
     4.3829

          k = 0.0625 0.6875 0.6875 (  8195 PWs)   bands (ev):

    -8.0357  -7.8375  -7.8253  -7.7761  -7.7539  -3.4254   0.9103   3.2200
     4.7925

          k = 0.0625 0.6875 0.8125 (  8168 PWs)   bands (ev):

    -8.0438  -7.8324  -7.8182  -7.7824  -7.7501  -3.3533   0.8477   3.3192
     4.4768

          k = 0.0625 0.8125 0.8125 (  8171 PWs)   bands (ev):

    -8.0522  -7.8232  -7.8145  -7.7893  -7.7456  -3.3412   0.8038   3.5157
     4.4414

          k = 0.1875 0.1875 0.1875 (  8141 PWs)   bands (ev):

    -7.9281  -7.8763  -7.8763  -7.7632  -7.7632  -4.9745   3.7195   6.1540
     6.1540

          k = 0.1875 0.1875 0.3125 (  8151 PWs)   bands (ev):

    -7.9481  -7.8711  -7.8683  -7.7662  -7.7593  -4.7813   3.0901   5.8053
     5.8909

          k = 0.1875 0.1875 0.4375 (  8162 PWs)   bands (ev):

    -7.9746  -7.8613  -7.8573  -7.7709  -7.7548  -4.5097   2.4755   5.2971
     5.4177

          k = 0.1875 0.1875 0.5625 (  8151 PWs)   bands (ev):

    -8.0019  -7.8493  -7.8444  -7.7767  -7.7506  -4.1827   1.9118   4.6690
     5.0556

          k = 0.1875 0.1875 0.6875 (  8169 PWs)   bands (ev):

    -8.0257  -7.8375  -7.8315  -7.7824  -7.7476  -3.8370   1.4188   4.1230
     4.7583

          k = 0.1875 0.1875 0.8125 (  8176 PWs)   bands (ev):

    -8.0431  -7.8282  -7.8208  -7.7869  -7.7460  -3.5299   1.0293   3.7247
     4.5491

          k = 0.1875 0.3125 0.3125 (  8156 PWs)   bands (ev):

    -7.9621  -7.8678  -7.8647  -7.7643  -7.7591  -4.6028   2.5390   5.4708
     6.0024

          k = 0.1875 0.3125 0.4375 (  8168 PWs)   bands (ev):

    -7.9818  -7.8611  -7.8573  -7.7666  -7.7558  -4.3546   2.0159   5.0143
     5.6906

          k = 0.1875 0.3125 0.5625 (  8171 PWs)   bands (ev):

    -8.0032  -7.8528  -7.8464  -7.7710  -7.7523  -4.0616   1.5680   4.5084
     5.2359

          k = 0.1875 0.3125 0.6875 (  8173 PWs)   bands (ev):

    -8.0223  -7.8442  -7.8344  -7.7759  -7.7502  -3.7610   1.2161   3.9957
     4.8557

          k = 0.1875 0.3125 0.8125 (  8172 PWs)   bands (ev):

    -8.0364  -7.8368  -7.8242  -7.7800  -7.7498  -3.5046   0.9728   3.5659
     4.6023

          k = 0.1875 0.4375 0.4375 (  8153 PWs)   bands (ev):

    -7.9935  -7.8565  -7.8558  -7.7632  -7.7571  -4.1440   1.5889   4.6186
     5.7035

          k = 0.1875 0.4375 0.5625 (  8174 PWs)   bands (ev):

    -8.0076  -7.8529  -7.8470  -7.7649  -7.7559  -3.9045   1.2532   4.2163
     5.3772

          k = 0.1875 0.4375 0.6875 (  8181 PWs)   bands (ev):

    -8.0211  -7.8485  -7.8357  -7.7694  -7.7543  -3.6719   1.0343   3.8361
     4.9350

          k = 0.1875 0.4375 0.8125 (  8183 PWs)   bands (ev):

    -8.0313  -7.8439  -7.8258  -7.7737  -7.7541  -3.4863   0.9300   3.5046
     4.5730

          k = 0.1875 0.5625 0.5625 (  8185 PWs)   bands (ev):

    -8.0152  -7.8497  -7.8437  -7.7621  -7.7590  -3.7383   1.0330   3.9180
     5.2953

          k = 0.1875 0.5625 0.6875 (  8192 PWs)   bands (ev):

    -8.0240  -7.8468  -7.8350  -7.7681  -7.7558  -3.5915   0.9316   3.6703
     4.9753

          k = 0.1875 0.6875 0.6875 (  8185 PWs)   bands (ev):

    -8.0301  -7.8413  -7.8310  -7.7737  -7.7526  -3.5349   0.9218   3.5619
     4.8785

          k = 0.3125 0.3125 0.3125 (  8138 PWs)   bands (ev):

    -7.9735  -7.8642  -7.8642  -7.7600  -7.7600  -4.4429   2.0347   5.7903
     5.7903

          k = 0.3125 0.3125 0.4375 (  8139 PWs)   bands (ev):

    -7.9887  -7.8608  -7.8581  -7.7622  -7.7556  -4.2248   1.5810   5.4862
     5.5305

          k = 0.3125 0.3125 0.5625 (  8162 PWs)   bands (ev):

    -8.0050  -7.8549  -7.8498  -7.7657  -7.7525  -3.9753   1.2328   4.8275
     5.2689

          k = 0.3125 0.3125 0.6875 (  8171 PWs)   bands (ev):

    -8.0194  -7.8477  -7.8401  -7.7699  -7.7516  -3.7311   1.0141   4.1384
     5.0427

          k = 0.3125 0.4375 0.4375 (  8157 PWs)   bands (ev):

    -7.9981  -7.8579  -7.8573  -7.7589  -7.7558  -4.0547   1.2126   5.2297
     5.6528

          k = 0.3125 0.4375 0.5625 (  8176 PWs)   bands (ev):

    -8.0082  -7.8551  -7.8515  -7.7605  -7.7545  -3.8725   0.9726   4.8032
     5.4142

          k = 0.3125 0.4375 0.6875 (  8184 PWs)   bands (ev):

    -8.0173  -7.8511  -7.8432  -7.7642  -7.7543  -3.7095   0.8853   4.2322
     5.1526

          k = 0.3125 0.5625 0.5625 (  8191 PWs)   bands (ev):

    -8.0126  -7.8532  -7.8496  -7.7592  -7.7559  -3.7777   0.8517   4.5734
     5.3764

          k = 0.4375 0.4375 0.4375 (  8165 PWs)   bands (ev):

    -8.0035  -7.8577  -7.8577  -7.7555  -7.7555  -3.9479   0.9306   5.5744
     5.5744

          k = 0.4375 0.4375 0.5625 (  8164 PWs)   bands (ev):

    -8.0086  -7.8562  -7.8548  -7.7567  -7.7544  -3.8491   0.8050   5.2405
     5.4764

     highest occupied level (ev):     6.4787

!    total energy              =    -163.07456898 Ry
     estimated scf accuracy    <       0.00000071 Ry

     The total energy is the sum of the following terms:
     one-electron contribution =     -63.89648165 Ry
     hartree contribution      =      44.67258326 Ry
     xc contribution           =     -56.90435956 Ry
     ewald contribution        =     -86.94631103 Ry

     convergence has been achieved in   7 iterations

     Forces acting on atoms (cartesian axes, Ry/au):

     atom    1 type  1   force =    -0.00000000    0.00000000   -0.00000000
     atom    2 type  2   force =     0.00000000    0.00000000    0.00000000

     Total force =     0.000000     Total SCF correction =     0.000000


     Computing stress (Cartesian axis) and pressure

          total   stress  (Ry/bohr**3)                   (kbar)     P=       40.64
   0.00027628  -0.00000000  -0.00000000           40.64       -0.00       -0.00
  -0.00000000   0.00027628   0.00000000           -0.00       40.64        0.00
  -0.00000000   0.00000000   0.00027628           -0.00        0.00       40.64


     Writing all to output data dir /home/nico-sachs/source/q-e/tempdir/inas.save/ :
     XML data file, charge density, pseudopotentials, collected wavefunctions

     init_run     :      5.08s CPU      5.18s WALL (       1 calls)
     electrons    :     90.88s CPU     91.84s WALL (       1 calls)
     forces       :      1.61s CPU      1.64s WALL (       1 calls)
     stress       :      7.26s CPU      7.36s WALL (       1 calls)

     Called by init_run:
     wfcinit      :      3.94s CPU      3.98s WALL (       1 calls)
     potinit      :      0.08s CPU      0.08s WALL (       1 calls)
     hinit0       :      0.91s CPU      0.91s WALL (       1 calls)

     Called by electrons:
     c_bands      :     82.20s CPU     82.66s WALL (       8 calls)
     sum_band     :      7.92s CPU      8.20s WALL (       8 calls)
     v_of_rho     :      0.22s CPU      0.23s WALL (       8 calls)
     newd         :      0.62s CPU      0.87s WALL (       8 calls)
     mix_rho      :      0.02s CPU      0.02s WALL (       8 calls)

     Called by c_bands:
     init_us_2    :      3.58s CPU      3.59s WALL (    1140 calls)
     ccgdiagg     :     68.38s CPU     68.80s WALL (     480 calls)
     wfcrot       :     15.37s CPU     15.44s WALL (     420 calls)

     Called by *cgdiagg:
     h_psi        :     48.49s CPU     48.77s WALL (   13399 calls)
     s_psi        :     16.17s CPU     16.26s WALL (   26378 calls)

     Called by h_psi:
     h_psi:calbec :     11.76s CPU     11.81s WALL (   13399 calls)
     vloc_psi     :     27.07s CPU     27.27s WALL (   13399 calls)
                                        0.00s GPU  (   13399 calls)
     add_vuspsi   :      9.29s CPU      9.33s WALL (   13399 calls)
     hs_1psi      :     44.97s CPU     45.24s WALL (   12979 calls)
     s_1psi       :     16.58s CPU     16.67s WALL (   12979 calls)

     General routines
     calbec       :     28.15s CPU     28.28s WALL (   27878 calls)
     fft          :      0.31s CPU      0.31s WALL (     114 calls)
     ffts         :      0.01s CPU      0.01s WALL (       8 calls)
     fftw         :     26.47s CPU     26.61s WALL (   38318 calls)

     Parallel routines

     PWSCF        :   1m45.14s CPU   1m46.42s WALL


   This run was terminated on:  22:55:16  26Jan2026            

=------------------------------------------------------------------------------=
   JOB DONE.
=------------------------------------------------------------------------------=
