
     Program PWSCF v.7.5 starts on 27Jan2026 at 15:37:48 

     This program is part of the open-source Quantum ESPRESSO suite
     for quantum simulation of materials; please cite
         "P. Giannozzi et al., J. Phys.:Condens. Matter 21 395502 (2009);
         "P. Giannozzi et al., J. Phys.:Condens. Matter 29 465901 (2017);
         "P. Giannozzi et al., J. Chem. Phys. 152 154105 (2020);
          URL http://www.quantum-espresso.org", 
     in publications or presentations arising from this work. More details at
     http://www.quantum-espresso.org/quote

     Parallel version (MPI), running on     4 processors

     MPI processes distributed on     1 nodes
     23170 MiB available memory on the printing compute node when the environment starts

     Waiting for input...
     Reading input from standard input

     Current dimensions of program PWSCF are:
     Max number of different atomic species (ntypx) = 10
     Max number of k-points (npk) =  40000
     Max angular momentum in pseudopotentials (lmaxx) =  4
     file Ga.pbe-dn-kjpaw_psl.1.0.0.UPF: wavefunction(s)  4S renormalized

     R & G space division:  proc/nbgrp/npool/nimage =       4
     Subspace diagonalization in iterative solution of the eigenvalue problem:
     a serial algorithm will be used


     Parallelization info
     --------------------
     sticks:   dense  smooth     PW     G-vecs:    dense   smooth      PW
     Min         249     238     70                10433     9886    1560
     Max         252     239     71                10438     9895    1561
     Sum        1003     955    283                41745    39571    6243

     Using Slab Decomposition



     bravais-lattice index     =            4
     lattice parameter (alat)  =       6.0263  a.u.
     unit-cell volume          =     308.1662 (a.u.)^3
     number of atoms/cell      =            4
     number of atomic types    =            2
     number of electrons       =        36.00
     number of Kohn-Sham states=           18
     kinetic-energy cutoff     =      96.6667  Ry
     charge density cutoff     =     400.0000  Ry
     scf convergence threshold =      1.0E-06
     mixing beta               =       0.7000
     number of iterations used =            8  plain     mixing
     Exchange-correlation= PBE
                           (   1   4   3   4   0   0   0)

     celldm(1)=   6.026337  celldm(2)=   0.000000  celldm(3)=   1.625902
     celldm(4)=   0.000000  celldm(5)=   0.000000  celldm(6)=   0.000000

     crystal axes: (cart. coord. in units of alat)
               a(1) = (   1.000000   0.000000   0.000000 )  
               a(2) = (  -0.500000   0.866025   0.000000 )  
               a(3) = (   0.000000   0.000000   1.625902 )  

     reciprocal axes: (cart. coord. in units 2 pi/alat)
               b(1) = (  1.000000  0.577350 -0.000000 )  
               b(2) = (  0.000000  1.154701  0.000000 )  
               b(3) = (  0.000000 -0.000000  0.615043 )  


     PseudoPot. # 1 for Ga read from file:
     /home/nico-sachs/source/q-e/SSSP_1.3.0_PBE_efficiency/Ga.pbe-dn-kjpaw_psl.1.0.0.UPF
     MD5 check sum: a27b4342b1af7e5f338de752e9ed7044
     Pseudo is Projector augmented-wave + core cor, Zval = 13.0
     Generated using "atomic" code by A. Dal Corso  v.5.1
     Shape of augmentation charge: PSQ
     Using radial grid of 1205 points,  6 beta functions with: 
                l(1) =   0
                l(2) =   0
                l(3) =   1
                l(4) =   1
                l(5) =   2
                l(6) =   2
     Q(r) pseudized with 0 coefficients 


     PseudoPot. # 2 for N  read from file:
     /home/nico-sachs/source/q-e/SSSP_1.3.0_PBE_efficiency/N.pbe-n-radius_5.UPF
     MD5 check sum: 16739722b17309cd8fe442a2ace49922
     Pseudo is Ultrasoft + core correction, Zval =  5.0
     Generated using "atomic" code by A. Dal Corso  v.5.1
     Using radial grid of 1085 points,  4 beta functions with: 
                l(1) =   0
                l(2) =   0
                l(3) =   1
                l(4) =   1
     Q(r) pseudized with 0 coefficients 


     atomic species   valence    mass     pseudopotential
     Ga               13.00    69.72300     Ga( 1.00)
     N                 5.00    14.00700     N ( 1.00)

     12 Sym. Ops. (no inversion) found ( 6 have fractional translation)



   Cartesian axes

     site n.     atom                  positions (alat units)
         1        Ga     tau(   1) = (  -0.0000000   0.5773503   0.0000000  )
         2        Ga     tau(   2) = (   0.5000000   0.2886751   0.8129508  )
         3        N      tau(   3) = (  -0.0000000   0.5773503   0.6097131  )
         4        N      tau(   4) = (   0.5000000   0.2886751   1.4226638  )

     number of k points=    21
                       cart. coord. in units 2pi/alat
        k(    1) = (   0.0000000   0.0000000   0.0000000), wk =   0.0138889
        k(    2) = (   0.0000000   0.0000000   0.1537608), wk =   0.0277778
        k(    3) = (   0.0000000   0.0000000  -0.3075217), wk =   0.0138889
        k(    4) = (   0.0000000   0.1924501   0.0000000), wk =   0.0833333
        k(    5) = (   0.0000000   0.1924501   0.1537608), wk =   0.1666667
        k(    6) = (   0.0000000   0.1924501  -0.3075217), wk =   0.0833333
        k(    7) = (   0.0000000   0.3849002   0.0000000), wk =   0.0833333
        k(    8) = (   0.0000000   0.3849002   0.1537608), wk =   0.1666667
        k(    9) = (   0.0000000   0.3849002  -0.3075217), wk =   0.0833333
        k(   10) = (   0.0000000  -0.5773503   0.0000000), wk =   0.0416667
        k(   11) = (   0.0000000  -0.5773503   0.1537608), wk =   0.0833333
        k(   12) = (   0.0000000  -0.5773503  -0.3075217), wk =   0.0416667
        k(   13) = (   0.1666667   0.2886751   0.0000000), wk =   0.0833333
        k(   14) = (   0.1666667   0.2886751   0.1537608), wk =   0.1666667
        k(   15) = (   0.1666667   0.2886751  -0.3075217), wk =   0.0833333
        k(   16) = (   0.1666667   0.4811252   0.0000000), wk =   0.1666667
        k(   17) = (   0.1666667   0.4811252   0.1537608), wk =   0.3333333
        k(   18) = (   0.1666667   0.4811252  -0.3075217), wk =   0.1666667
        k(   19) = (   0.3333333   0.5773503   0.0000000), wk =   0.0277778
        k(   20) = (   0.3333333   0.5773503   0.1537608), wk =   0.0555556
        k(   21) = (   0.3333333   0.5773503  -0.3075217), wk =   0.0277778

     Dense  grid:    41745 G-vectors     FFT dimensions: (  40,  40,  64)

     Smooth grid:    39571 G-vectors     FFT dimensions: (  40,  40,  64)

     Estimated max dynamical RAM per process >      50.08 MB

     Estimated total dynamical RAM >     200.32 MB

     Initial potential from superposition of free atoms

     starting charge      35.9941, renormalised to      36.0000
     Starting wfcs are   26 randomized atomic wfcs
     Checking if some PAW data can be deallocated... 

     total cpu time spent up to now is        1.7 secs

     Self-consistent Calculation

     iteration #  1     ecut=    96.67 Ry     beta= 0.70
     CG style diagonalization
     ethr =  1.00E-02,  avg # of iterations =  2.0

     total cpu time spent up to now is        3.7 secs

     total energy              =    -595.57991801 Ry
     estimated scf accuracy    <       1.11485622 Ry

     iteration #  2     ecut=    96.67 Ry     beta= 0.70
     CG style diagonalization
     ethr =  3.10E-03,  avg # of iterations =  4.8

     total cpu time spent up to now is        7.1 secs

     total energy              =    -596.03013574 Ry
     estimated scf accuracy    <       1.06954621 Ry

     iteration #  3     ecut=    96.67 Ry     beta= 0.70
     CG style diagonalization
     ethr =  2.97E-03,  avg # of iterations =  3.8

     total cpu time spent up to now is        9.8 secs

     total energy              =    -596.21293244 Ry
     estimated scf accuracy    <       0.00870730 Ry

     iteration #  4     ecut=    96.67 Ry     beta= 0.70
     CG style diagonalization
     c_bands:  1 eigenvalues not converged
     c_bands:  1 eigenvalues not converged
     c_bands:  1 eigenvalues not converged
     c_bands:  1 eigenvalues not converged
     c_bands:  2 eigenvalues not converged
     c_bands:  2 eigenvalues not converged
     c_bands:  1 eigenvalues not converged
     c_bands:  2 eigenvalues not converged
     ethr =  2.42E-05,  avg # of iterations =  9.8

     total cpu time spent up to now is       16.3 secs

     total energy              =    -596.35775441 Ry
     estimated scf accuracy    <       0.03687417 Ry

     iteration #  5     ecut=    96.67 Ry     beta= 0.70
     CG style diagonalization
     ethr =  2.42E-05,  avg # of iterations =  4.1

     total cpu time spent up to now is       19.2 secs

     total energy              =    -596.36474531 Ry
     estimated scf accuracy    <       0.05349954 Ry

     iteration #  6     ecut=    96.67 Ry     beta= 0.70
     CG style diagonalization
     ethr =  2.42E-05,  avg # of iterations =  4.0

     total cpu time spent up to now is       22.1 secs

     total energy              =    -596.36861479 Ry
     estimated scf accuracy    <       0.00214189 Ry

     iteration #  7     ecut=    96.67 Ry     beta= 0.70
     CG style diagonalization
     ethr =  5.95E-06,  avg # of iterations =  7.6

     total cpu time spent up to now is       27.3 secs

     total energy              =    -596.37246306 Ry
     estimated scf accuracy    <       0.05479456 Ry

     iteration #  8     ecut=    96.67 Ry     beta= 0.70
     CG style diagonalization
     ethr =  5.95E-06,  avg # of iterations =  4.5

     total cpu time spent up to now is       30.6 secs

     total energy              =    -596.37458776 Ry
     estimated scf accuracy    <       0.04457491 Ry

     iteration #  9     ecut=    96.67 Ry     beta= 0.70
     CG style diagonalization
     ethr =  5.95E-06,  avg # of iterations =  3.4

     total cpu time spent up to now is       33.1 secs

     total energy              =    -596.36753088 Ry
     estimated scf accuracy    <       0.04714735 Ry

     iteration # 10     ecut=    96.67 Ry     beta= 0.70
     CG style diagonalization
     ethr =  5.95E-06,  avg # of iterations =  4.5

     total cpu time spent up to now is       36.4 secs

     total energy              =    -596.36829115 Ry
     estimated scf accuracy    <       0.00420767 Ry

     iteration # 11     ecut=    96.67 Ry     beta= 0.70
     CG style diagonalization
     ethr =  5.95E-06,  avg # of iterations =  3.4

     total cpu time spent up to now is       38.9 secs

     total energy              =    -596.36843302 Ry
     estimated scf accuracy    <       0.00363539 Ry

     iteration # 12     ecut=    96.67 Ry     beta= 0.70
     CG style diagonalization
     ethr =  5.95E-06,  avg # of iterations =  5.4

     total cpu time spent up to now is       42.7 secs

     total energy              =    -596.36856262 Ry
     estimated scf accuracy    <       0.00474666 Ry

     iteration # 13     ecut=    96.67 Ry     beta= 0.70
     CG style diagonalization
     ethr =  5.95E-06,  avg # of iterations =  4.1

     total cpu time spent up to now is       45.7 secs

     total energy              =    -596.36934039 Ry
     estimated scf accuracy    <       0.00013689 Ry

     iteration # 14     ecut=    96.67 Ry     beta= 0.70
     CG style diagonalization
     ethr =  3.80E-07,  avg # of iterations =  8.9

     total cpu time spent up to now is       51.7 secs

     total energy              =    -596.37193425 Ry
     estimated scf accuracy    <       0.00195318 Ry

     iteration # 15     ecut=    96.67 Ry     beta= 0.70
     CG style diagonalization
     c_bands:  1 eigenvalues not converged
     c_bands:  2 eigenvalues not converged
     c_bands:  1 eigenvalues not converged
     c_bands:  1 eigenvalues not converged
     c_bands:  1 eigenvalues not converged
     ethr =  3.80E-07,  avg # of iterations = 10.3

     total cpu time spent up to now is       58.7 secs

     total energy              =    -596.37270199 Ry
     estimated scf accuracy    <       0.01200813 Ry

     iteration # 16     ecut=    96.67 Ry     beta= 0.70
     CG style diagonalization
     ethr =  3.80E-07,  avg # of iterations =  5.9

     total cpu time spent up to now is       63.7 secs

     total energy              =    -596.37058274 Ry
     estimated scf accuracy    <       0.01372204 Ry

     iteration # 17     ecut=    96.67 Ry     beta= 0.70
     CG style diagonalization
     ethr =  3.80E-07,  avg # of iterations =  5.3

     total cpu time spent up to now is       67.9 secs

     total energy              =    -596.36989974 Ry
     estimated scf accuracy    <       0.00809986 Ry

     iteration # 18     ecut=    96.67 Ry     beta= 0.70
     CG style diagonalization
     ethr =  3.80E-07,  avg # of iterations =  4.6

     total cpu time spent up to now is       71.5 secs

     total energy              =    -596.36925720 Ry
     estimated scf accuracy    <       0.00492713 Ry

     iteration # 19     ecut=    96.67 Ry     beta= 0.70
     CG style diagonalization
     ethr =  3.80E-07,  avg # of iterations =  6.1

     total cpu time spent up to now is       75.6 secs

     total energy              =    -596.36921543 Ry
     estimated scf accuracy    <       0.00156264 Ry

     iteration # 20     ecut=    96.67 Ry     beta= 0.70
     CG style diagonalization
     c_bands:  1 eigenvalues not converged
     c_bands:  2 eigenvalues not converged
     c_bands:  3 eigenvalues not converged
     c_bands:  4 eigenvalues not converged
     c_bands:  3 eigenvalues not converged
     c_bands:  3 eigenvalues not converged
     c_bands:  2 eigenvalues not converged
     c_bands:  3 eigenvalues not converged
     c_bands:  3 eigenvalues not converged
     c_bands:  3 eigenvalues not converged
     c_bands:  3 eigenvalues not converged
     c_bands:  3 eigenvalues not converged
     c_bands:  3 eigenvalues not converged
     c_bands:  2 eigenvalues not converged
     c_bands:  1 eigenvalues not converged
     c_bands:  4 eigenvalues not converged
     c_bands:  3 eigenvalues not converged
     c_bands:  1 eigenvalues not converged
     c_bands:  2 eigenvalues not converged
     c_bands:  2 eigenvalues not converged
     ethr =  3.80E-07,  avg # of iterations = 14.0

     total cpu time spent up to now is       84.6 secs

     total energy              =    -596.36844099 Ry
     estimated scf accuracy    <       0.01238243 Ry

     iteration # 21     ecut=    96.67 Ry     beta= 0.70
     CG style diagonalization
     c_bands:  1 eigenvalues not converged
     ethr =  3.80E-07,  avg # of iterations =  8.9

     total cpu time spent up to now is       90.6 secs

     total energy              =    -596.36939721 Ry
     estimated scf accuracy    <       0.00009172 Ry

     iteration # 22     ecut=    96.67 Ry     beta= 0.70
     CG style diagonalization
     c_bands:  1 eigenvalues not converged
     c_bands:  1 eigenvalues not converged
     c_bands:  1 eigenvalues not converged
     ethr =  2.55E-07,  avg # of iterations =  7.3

     total cpu time spent up to now is       95.4 secs

     total energy              =    -596.36966237 Ry
     estimated scf accuracy    <       0.00014422 Ry

     iteration # 23     ecut=    96.67 Ry     beta= 0.70
     CG style diagonalization
     ethr =  2.55E-07,  avg # of iterations =  4.4

     total cpu time spent up to now is       98.5 secs

     total energy              =    -596.36967085 Ry
     estimated scf accuracy    <       0.00017176 Ry

     iteration # 24     ecut=    96.67 Ry     beta= 0.70
     CG style diagonalization
     ethr =  2.55E-07,  avg # of iterations =  3.3

     total cpu time spent up to now is      100.9 secs

     total energy              =    -596.36966820 Ry
     estimated scf accuracy    <       0.00003293 Ry

     iteration # 25     ecut=    96.67 Ry     beta= 0.70
     CG style diagonalization
     ethr =  9.15E-08,  avg # of iterations =  4.0

     total cpu time spent up to now is      103.8 secs

     total energy              =    -596.36967630 Ry
     estimated scf accuracy    <       0.00000182 Ry

     iteration # 26     ecut=    96.67 Ry     beta= 0.70
     CG style diagonalization
     c_bands:  1 eigenvalues not converged
     ethr =  5.07E-09,  avg # of iterations =  8.5

     total cpu time spent up to now is      109.5 secs

     End of self-consistent calculation

          k = 0.0000 0.0000 0.0000 (  4927 PWs)   bands (ev):

    -6.2597  -5.3522  -3.7614  -3.7405  -3.7405  -3.6786  -3.6786  -3.4926
    -3.4926  -3.3932  -3.3932  -2.1371   2.6381   8.6770   8.6770   9.6618
     9.7239   9.7239

          k = 0.0000 0.0000 0.1538 (  4945 PWs)   bands (ev):

    -6.0842  -5.4246  -3.7368  -3.7368  -3.7043  -3.6926  -3.6926  -3.4731
    -3.4731  -3.4033  -3.4033  -2.6889   3.6923   8.1692   8.8236   8.8236
     9.5639   9.5639

          k = 0.0000 0.0000-0.3075 (  4962 PWs)   bands (ev):

    -5.6988  -5.6988  -3.7197  -3.7197  -3.7197  -3.7197  -3.4336  -3.4336
    -3.4336  -3.4336  -3.4075  -3.4075   5.8620   5.8620   9.1870   9.1870
     9.1870   9.1870

          k = 0.0000 0.1925 0.0000 (  4956 PWs)   bands (ev):

    -6.0084  -5.2942  -3.7285  -3.7068  -3.6640  -3.6289  -3.6281  -3.5137
    -3.4913  -3.4295  -3.3877  -1.9526   3.0224   7.0013   8.0036   8.1703
     9.3747   9.4874

          k = 0.0000 0.1925 0.1538 (  4977 PWs)   bands (ev):

    -5.8577  -5.3434  -3.7191  -3.6990  -3.6703  -3.6431  -3.6045  -3.4762
    -3.4731  -3.4300  -3.4002  -2.4657   3.9341   7.1172   7.4475   8.3470
     9.0094   9.2758

          k = 0.0000 0.1925-0.3075 (  4968 PWs)   bands (ev):

    -5.5454  -5.5454  -3.6944  -3.6944  -3.6746  -3.6746  -3.5174  -3.5174
    -3.4339  -3.4339  -3.1679  -3.1679   5.6979   5.6979   8.0814   8.0814
     8.7941   8.7941

          k = 0.0000 0.3849 0.0000 (  4952 PWs)   bands (ev):

    -5.5486  -5.2161  -3.6911  -3.6720  -3.5940  -3.5309  -3.5291  -3.4952
    -3.4466  -3.3768  -3.0749  -1.5904   3.7557   4.8340   5.8317   7.3402
     8.4320   8.9893

          k = 0.0000 0.3849 0.1538 (  4950 PWs)   bands (ev):

    -5.4639  -5.2294  -3.6986  -3.6500  -3.6261  -3.5475  -3.5304  -3.4786
    -3.4394  -3.3907  -2.9582  -1.9460   3.7673   5.0283   6.0355   7.5531
     8.5340   8.7117

          k = 0.0000 0.3849-0.3075 (  4950 PWs)   bands (ev):

    -5.3093  -5.3093  -3.6825  -3.6825  -3.5972  -3.5972  -3.4966  -3.4966
    -3.4182  -3.4182  -2.5641  -2.5641   4.2512   4.2512   7.6305   7.6305
     8.1011   8.1011

          k = 0.0000-0.5774 0.0000 (  4958 PWs)   bands (ev):

    -5.3699  -5.1952  -3.6942  -3.6702  -3.5761  -3.5325  -3.4848  -3.4785
    -3.4029  -3.3679  -2.2531  -1.7135   3.2787   4.4579   5.4911   6.9787
     7.4882   8.7458

          k = 0.0000-0.5774 0.1538 (  4934 PWs)   bands (ev):

    -5.3189  -5.1953  -3.7068  -3.6412  -3.6186  -3.5355  -3.5067  -3.4382
    -3.4015  -3.3803  -2.1975  -1.8088   3.0113   3.8633   6.4139   7.2046
     8.0168   8.4444

          k = 0.0000-0.5774-0.3075 (  4936 PWs)   bands (ev):

    -5.2309  -5.2309  -3.6963  -3.6963  -3.5714  -3.5713  -3.4621  -3.4621
    -3.3955  -3.3955  -2.0262  -2.0262   3.1282   3.1282   7.7881   7.7881
     7.8142   7.8142

          k = 0.1667 0.2887 0.0000 (  4949 PWs)   bands (ev):

    -5.6524  -5.2312  -3.6958  -3.6731  -3.6047  -3.5807  -3.5326  -3.4717
    -3.4609  -3.4149  -3.2548  -1.6580   3.6595   5.6774   6.0544   7.3236
     8.7147   8.7997

          k = 0.1667 0.2887 0.1538 (  4950 PWs)   bands (ev):

    -5.5498  -5.2518  -3.6785  -3.6754  -3.6190  -3.6055  -3.5115  -3.5056
    -3.4381  -3.4220  -3.1473  -2.0772   4.0799   5.7176   6.2981   7.2856
     8.4062   8.7895

          k = 0.1667 0.2887-0.3075 (  4952 PWs)   bands (ev):

    -5.3573  -5.3573  -3.6584  -3.6584  -3.6310  -3.6310  -3.5273  -3.5273
    -3.4234  -3.4234  -2.7530  -2.7530   4.8866   4.8866   7.6049   7.6049
     7.9152   7.9152

          k = 0.1667 0.4811 0.0000 (  4947 PWs)   bands (ev):

    -5.3590  -5.2003  -3.7170  -3.6346  -3.5467  -3.5317  -3.5105  -3.4902
    -3.4285  -3.3945  -2.4164  -1.5052   3.7165   4.6710   5.5231   6.0974
     7.6970   7.9643

          k = 0.1667 0.4811 0.1538 (  4930 PWs)   bands (ev):

    -5.3091  -5.1975  -3.6867  -3.6517  -3.5975  -3.5334  -3.5115  -3.4692
    -3.4210  -3.4110  -2.3223  -1.6769   3.4518   4.2387   5.9650   6.7321
     7.5262   8.2176

          k = 0.1667 0.4811-0.3075 (  4932 PWs)   bands (ev):

    -5.2261  -5.2261  -3.6613  -3.6613  -3.5912  -3.5912  -3.4895  -3.4895
    -3.4135  -3.4135  -2.0405  -2.0405   3.5811   3.5811   6.6749   6.6749
     8.0594   8.0594

          k = 0.3333 0.5774 0.0000 (  4974 PWs)   bands (ev):

    -5.2360  -5.2360  -3.7460  -3.5390  -3.5390  -3.5207  -3.5069  -3.5069
    -3.4600  -3.4127  -1.7188  -1.7188   4.3948   4.3948   4.4455   6.7159
     6.7159   7.0331

          k = 0.3333 0.5774 0.1538 (  4944 PWs)   bands (ev):

    -5.2134  -5.2134  -3.7059  -3.5924  -3.5925  -3.5296  -3.4663  -3.4663
    -3.4644  -3.4485  -1.7131  -1.7131   3.9073   3.9073   4.7438   6.5277
     7.5184   7.5184

          k = 0.3333 0.5774-0.3075 (  4944 PWs)   bands (ev):

    -5.1902  -5.1902  -3.6249  -3.6249  -3.6070  -3.6070  -3.4717  -3.4717
    -3.4472  -3.4472  -1.7073  -1.7073   3.5638   3.5638   5.5435   5.5435
     8.2326   8.2326

     highest occupied level (ev):     9.7239

!    total energy              =    -596.36968417 Ry
     estimated scf accuracy    <       0.00000089 Ry

     The total energy is the sum of the following terms:
     one-electron contribution =    -181.38457965 Ry
     hartree contribution      =     130.16487209 Ry
     xc contribution           =     -87.88289041 Ry
     ewald contribution        =    -233.28276133 Ry
     one-center paw contrib.   =    -223.98432487 Ry

     convergence has been achieved in  26 iterations

     Forces acting on atoms (cartesian axes, Ry/au):

     atom    1 type  1   force =     0.00000000    0.00000000   -0.00476865
     atom    2 type  1   force =     0.00000000    0.00000000   -0.00476865
     atom    3 type  2   force =     0.00000000    0.00000000    0.00476865
     atom    4 type  2   force =    -0.00000000   -0.00000000    0.00476865

     Total force =     0.009537     Total SCF correction =     0.000213


     Computing stress (Cartesian axis) and pressure

          total   stress  (Ry/bohr**3)                   (kbar)     P=       53.64
   0.00032596   0.00000000   0.00000000           47.95        0.00        0.00
   0.00000000   0.00032596   0.00000000            0.00       47.95        0.00
   0.00000000   0.00000000   0.00044203            0.00        0.00       65.02


     Writing all to output data dir /home/nico-sachs/source/q-e/tempdir/gan.save/ :
     XML data file, charge density, pseudopotentials, collected wavefunctions

     init_run     :      1.49s CPU      1.57s WALL (       1 calls)
     electrons    :    104.74s CPU    107.80s WALL (       1 calls)
     forces       :      0.33s CPU      0.33s WALL (       1 calls)
     stress       :      1.28s CPU      1.29s WALL (       1 calls)

     Called by init_run:
     wfcinit      :      0.74s CPU      0.76s WALL (       1 calls)
     potinit      :      0.29s CPU      0.33s WALL (       1 calls)
     hinit0       :      0.34s CPU      0.34s WALL (       1 calls)

     Called by electrons:
     c_bands      :     91.30s CPU     94.13s WALL (      26 calls)
     sum_band     :      5.59s CPU      5.79s WALL (      26 calls)
     v_of_rho     :      0.32s CPU      0.33s WALL (      27 calls)
     newd         :      1.13s CPU      1.15s WALL (      27 calls)
     PAW_pot      :      6.56s CPU      6.60s WALL (      27 calls)
     mix_rho      :      0.09s CPU      0.09s WALL (      26 calls)

     Called by c_bands:
     init_us_2    :      0.63s CPU      0.64s WALL (    1155 calls)
     ccgdiagg     :     79.73s CPU     82.20s WALL (     547 calls)
     wfcrot       :     11.79s CPU     12.16s WALL (     547 calls)

     Called by *cgdiagg:
     h_psi        :     54.05s CPU     56.01s WALL (   48786 calls)
     s_psi        :     15.71s CPU     16.15s WALL (   97025 calls)

     Called by h_psi:
     h_psi:calbec :     12.57s CPU     13.03s WALL (   48786 calls)
     vloc_psi     :     32.09s CPU     33.30s WALL (   48786 calls)
                                        0.00s GPU  (   48786 calls)
     add_vuspsi   :      8.85s CPU      9.14s WALL (   48786 calls)
     hs_1psi      :     53.34s CPU     55.22s WALL (   48239 calls)
     s_1psi       :     17.81s CPU     18.22s WALL (   48239 calls)

     General routines
     calbec       :     25.25s CPU     25.99s WALL (   97928 calls)
     fft          :      0.31s CPU      0.32s WALL (     374 calls)
     ffts         :      0.05s CPU      0.05s WALL (      53 calls)
     fftw         :     29.92s CPU     31.13s WALL (  126334 calls)
     interpolate  :      0.06s CPU      0.06s WALL (      27 calls)

     Parallel routines

     PWSCF        :   1m48.03s CPU   1m51.23s WALL


   This run was terminated on:  15:39:39  27Jan2026            

=------------------------------------------------------------------------------=
   JOB DONE.
=------------------------------------------------------------------------------=
