
     Program PWSCF v.7.5 starts on 26Jan2026 at 16:21:22 

     This program is part of the open-source Quantum ESPRESSO suite
     for quantum simulation of materials; please cite
         "P. Giannozzi et al., J. Phys.:Condens. Matter 21 395502 (2009);
         "P. Giannozzi et al., J. Phys.:Condens. Matter 29 465901 (2017);
         "P. Giannozzi et al., J. Chem. Phys. 152 154105 (2020);
          URL http://www.quantum-espresso.org", 
     in publications or presentations arising from this work. More details at
     http://www.quantum-espresso.org/quote

     Parallel version (MPI), running on     1 processors

     MPI processes distributed on     1 nodes
     25024 MiB available memory on the printing compute node when the environment starts

     Waiting for input...
     Reading input from standard input

     Current dimensions of program PWSCF are:
     Max number of different atomic species (ntypx) = 10
     Max number of k-points (npk) =  40000
     Max angular momentum in pseudopotentials (lmaxx) =  4
     file Ga.pbe-dn-kjpaw_psl.1.0.0.UPF: wavefunction(s)  4S renormalized
     file Al.pbe-n-kjpaw_psl.1.0.0.UPF: wavefunction(s)  3S 3P renormalized
     Message from routine set_cutoff:
     ecutrho < 4*ecutwfc, are you sure?
     Message from routine volume:
     axis vectors are left-handed
     Message from routine setup:
     using ibrav=0 with symmetry is DISCOURAGED, use correct ibrav instead

     Subspace diagonalization in iterative solution of the eigenvalue problem:
     a serial algorithm will be used


     G-vector sticks info
     --------------------
     sticks:   dense  smooth     PW     G-vecs:    dense   smooth      PW
     Sum         547     547    241                 8363     8363    2421

     Using Slab Decomposition



     bravais-lattice index     =            0
     lattice parameter (alat)  =      10.6829  a.u.
     unit-cell volume          =     304.7984 (a.u.)^3
     number of atoms/cell      =            2
     number of atomic types    =            2
     number of electrons       =        16.00
     number of Kohn-Sham states=           12
     kinetic-energy cutoff     =      50.0000  Ry
     charge density cutoff     =     137.5000  Ry
     scf convergence threshold =      1.0E-06
     mixing beta               =       0.7000
     number of iterations used =            8  plain     mixing
     Exchange-correlation= SLA  PW   PBX  PBC
                           (   1   4   3   4   0   0   0)

     celldm(1)=  10.682943  celldm(2)=   0.000000  celldm(3)=   0.000000
     celldm(4)=   0.000000  celldm(5)=   0.000000  celldm(6)=   0.000000

     crystal axes: (cart. coord. in units of alat)
               a(1) = (   0.500000   0.500000   0.000000 )  
               a(2) = (   0.500000   0.000000   0.500000 )  
               a(3) = (   0.000000   0.500000   0.500000 )  

     reciprocal axes: (cart. coord. in units 2 pi/alat)
               b(1) = (  1.000000  1.000000 -1.000000 )  
               b(2) = (  1.000000 -1.000000  1.000000 )  
               b(3) = ( -1.000000  1.000000  1.000000 )  


     PseudoPot. # 1 for Ga read from file:
     /home/nico-sachs/source/q-e/SSSP_1.3.0_PBE_efficiency/Ga.pbe-dn-kjpaw_psl.1.0.0.UPF
     MD5 check sum: a27b4342b1af7e5f338de752e9ed7044
     Pseudo is Projector augmented-wave + core cor, Zval = 13.0
     Generated using "atomic" code by A. Dal Corso  v.5.1
     Shape of augmentation charge: PSQ
     Using radial grid of 1205 points,  6 beta functions with: 
                l(1) =   0
                l(2) =   0
                l(3) =   1
                l(4) =   1
                l(5) =   2
                l(6) =   2
     Q(r) pseudized with 0 coefficients 


     PseudoPot. # 2 for Al read from file:
     /home/nico-sachs/source/q-e/SSSP_1.3.0_PBE_efficiency/Al.pbe-n-kjpaw_psl.1.0.0.UPF
     MD5 check sum: cfc449ca30b5f3223ec38ddd88ac046d
     Pseudo is Projector augmented-wave + core cor, Zval =  3.0
     Generated using "atomic" code by A. Dal Corso  v.5.1
     Shape of augmentation charge: PSQ
     Using radial grid of 1135 points,  6 beta functions with: 
                l(1) =   0
                l(2) =   0
                l(3) =   1
                l(4) =   1
                l(5) =   2
                l(6) =   2
     Q(r) pseudized with 0 coefficients 


     atomic species   valence    mass     pseudopotential
     Ga               13.00    69.72300     Ga( 1.00)
     As                3.00    74.92100     Al( 1.00)

     24 Sym. Ops. (no inversion) found



   Cartesian axes

     site n.     atom                  positions (alat units)
         1        As     tau(   1) = (   0.2500000   0.2500000   0.2500000  )
         2        Ga     tau(   2) = (   0.0000000   0.0000000   0.0000000  )

     number of k points=    60  Marzari-Vanderbilt smearing, width (Ry)=  0.0500
                       cart. coord. in units 2pi/alat
        k(    1) = (   0.0625000   0.0625000   0.0625000), wk =   0.0078125
        k(    2) = (   0.0625000   0.0625000   0.1875000), wk =   0.0234375
        k(    3) = (   0.0625000   0.0625000   0.3125000), wk =   0.0234375
        k(    4) = (   0.0625000   0.0625000   0.4375000), wk =   0.0234375
        k(    5) = (   0.0625000   0.0625000   0.5625000), wk =   0.0234375
        k(    6) = (   0.0625000   0.0625000   0.6875000), wk =   0.0234375
        k(    7) = (   0.0625000   0.0625000   0.8125000), wk =   0.0234375
        k(    8) = (   0.0625000   0.0625000   0.9375000), wk =   0.0234375
        k(    9) = (   0.0625000   0.1875000   0.1875000), wk =   0.0234375
        k(   10) = (   0.0625000   0.1875000   0.3125000), wk =   0.0468750
        k(   11) = (   0.0625000   0.1875000   0.4375000), wk =   0.0468750
        k(   12) = (   0.0625000   0.1875000   0.5625000), wk =   0.0468750
        k(   13) = (   0.0625000   0.1875000   0.6875000), wk =   0.0468750
        k(   14) = (   0.0625000   0.1875000   0.8125000), wk =   0.0468750
        k(   15) = (   0.0625000   0.1875000   0.9375000), wk =   0.0468750
        k(   16) = (   0.0625000   0.3125000   0.3125000), wk =   0.0234375
        k(   17) = (   0.0625000   0.3125000   0.4375000), wk =   0.0468750
        k(   18) = (   0.0625000   0.3125000   0.5625000), wk =   0.0468750
        k(   19) = (   0.0625000   0.3125000   0.6875000), wk =   0.0468750
        k(   20) = (   0.0625000   0.3125000   0.8125000), wk =   0.0468750
        k(   21) = (   0.0625000   0.3125000   0.9375000), wk =   0.0468750
        k(   22) = (   0.0625000   0.4375000   0.4375000), wk =   0.0234375
        k(   23) = (   0.0625000   0.4375000   0.5625000), wk =   0.0468750
        k(   24) = (   0.0625000   0.4375000   0.6875000), wk =   0.0468750
        k(   25) = (   0.0625000   0.4375000   0.8125000), wk =   0.0468750
        k(   26) = (   0.0625000   0.4375000   0.9375000), wk =   0.0468750
        k(   27) = (   0.0625000   0.5625000   0.5625000), wk =   0.0234375
        k(   28) = (   0.0625000   0.5625000   0.6875000), wk =   0.0468750
        k(   29) = (   0.0625000   0.5625000   0.8125000), wk =   0.0468750
        k(   30) = (   0.0625000   0.6875000   0.6875000), wk =   0.0234375
        k(   31) = (   0.0625000   0.6875000   0.8125000), wk =   0.0468750
        k(   32) = (   0.0625000   0.8125000   0.8125000), wk =   0.0234375
        k(   33) = (   0.1875000   0.1875000   0.1875000), wk =   0.0078125
        k(   34) = (   0.1875000   0.1875000   0.3125000), wk =   0.0234375
        k(   35) = (   0.1875000   0.1875000   0.4375000), wk =   0.0234375
        k(   36) = (   0.1875000   0.1875000   0.5625000), wk =   0.0234375
        k(   37) = (   0.1875000   0.1875000   0.6875000), wk =   0.0234375
        k(   38) = (   0.1875000   0.1875000   0.8125000), wk =   0.0234375
        k(   39) = (   0.1875000   0.3125000   0.3125000), wk =   0.0234375
        k(   40) = (   0.1875000   0.3125000   0.4375000), wk =   0.0468750
        k(   41) = (   0.1875000   0.3125000   0.5625000), wk =   0.0468750
        k(   42) = (   0.1875000   0.3125000   0.6875000), wk =   0.0468750
        k(   43) = (   0.1875000   0.3125000   0.8125000), wk =   0.0468750
        k(   44) = (   0.1875000   0.4375000   0.4375000), wk =   0.0234375
        k(   45) = (   0.1875000   0.4375000   0.5625000), wk =   0.0468750
        k(   46) = (   0.1875000   0.4375000   0.6875000), wk =   0.0468750
        k(   47) = (   0.1875000   0.4375000   0.8125000), wk =   0.0468750
        k(   48) = (   0.1875000   0.5625000   0.5625000), wk =   0.0234375
        k(   49) = (   0.1875000   0.5625000   0.6875000), wk =   0.0468750
        k(   50) = (   0.1875000   0.6875000   0.6875000), wk =   0.0234375
        k(   51) = (   0.3125000   0.3125000   0.3125000), wk =   0.0078125
        k(   52) = (   0.3125000   0.3125000   0.4375000), wk =   0.0234375
        k(   53) = (   0.3125000   0.3125000   0.5625000), wk =   0.0234375
        k(   54) = (   0.3125000   0.3125000   0.6875000), wk =   0.0234375
        k(   55) = (   0.3125000   0.4375000   0.4375000), wk =   0.0234375
        k(   56) = (   0.3125000   0.4375000   0.5625000), wk =   0.0468750
        k(   57) = (   0.3125000   0.4375000   0.6875000), wk =   0.0468750
        k(   58) = (   0.3125000   0.5625000   0.5625000), wk =   0.0234375
        k(   59) = (   0.4375000   0.4375000   0.4375000), wk =   0.0078125
        k(   60) = (   0.4375000   0.4375000   0.5625000), wk =   0.0234375

     Dense  grid:     8363 G-vectors     FFT dimensions: (  30,  30,  30)

     Estimated max dynamical RAM per process >      54.45 MB

     Check: negative core charge=   -0.000007

     Initial potential from superposition of free atoms

     starting charge      15.9948, renormalised to      16.0000
     Starting wfcs are   13 randomized atomic wfcs
     Checking if some PAW data can be deallocated... 

     total cpu time spent up to now is        1.8 secs

     Self-consistent Calculation

     iteration #  1     ecut=    50.00 Ry     beta= 0.70
     CG style diagonalization
     ethr =  1.00E-02,  avg # of iterations =  3.0

     Threshold (ethr) on eigenvalues was too large:
     Diagonalizing with lowered threshold

     CG style diagonalization
     c_bands:  2 eigenvalues not converged
     c_bands:  1 eigenvalues not converged
     c_bands:  1 eigenvalues not converged
     ethr =  4.69E-05,  avg # of iterations =  7.9

     total cpu time spent up to now is       11.1 secs

     total energy              =    -317.34851093 Ry
     estimated scf accuracy    <       0.00997293 Ry

     iteration #  2     ecut=    50.00 Ry     beta= 0.70
     CG style diagonalization
     ethr =  6.23E-05,  avg # of iterations =  3.0

     total cpu time spent up to now is       13.9 secs

     total energy              =    -317.34889814 Ry
     estimated scf accuracy    <       0.00083843 Ry

     iteration #  3     ecut=    50.00 Ry     beta= 0.70
     CG style diagonalization
     c_bands:  1 eigenvalues not converged
     c_bands:  1 eigenvalues not converged
     c_bands:  1 eigenvalues not converged
     c_bands:  1 eigenvalues not converged
     c_bands:  1 eigenvalues not converged
     ethr =  5.24E-06,  avg # of iterations =  4.9

     total cpu time spent up to now is       18.2 secs

     total energy              =    -317.34916480 Ry
     estimated scf accuracy    <       0.00000821 Ry

     iteration #  4     ecut=    50.00 Ry     beta= 0.70
     CG style diagonalization
     c_bands:  1 eigenvalues not converged
     c_bands:  1 eigenvalues not converged
     c_bands:  1 eigenvalues not converged
     c_bands:  1 eigenvalues not converged
     c_bands:  1 eigenvalues not converged
     c_bands:  1 eigenvalues not converged
     c_bands:  1 eigenvalues not converged
     c_bands:  1 eigenvalues not converged
     c_bands:  1 eigenvalues not converged
     c_bands:  2 eigenvalues not converged
     c_bands:  2 eigenvalues not converged
     c_bands:  1 eigenvalues not converged
     ethr =  5.13E-08,  avg # of iterations = 10.4

     total cpu time spent up to now is       26.6 secs

     total energy              =    -317.34937850 Ry
     estimated scf accuracy    <       0.00017589 Ry

     iteration #  5     ecut=    50.00 Ry     beta= 0.70
     CG style diagonalization
     ethr =  5.13E-08,  avg # of iterations =  3.1

     total cpu time spent up to now is       29.5 secs

     total energy              =    -317.34937413 Ry
     estimated scf accuracy    <       0.00018254 Ry

     iteration #  6     ecut=    50.00 Ry     beta= 0.70
     CG style diagonalization
     ethr =  5.13E-08,  avg # of iterations =  3.0

     total cpu time spent up to now is       32.2 secs

     total energy              =    -317.34934786 Ry
     estimated scf accuracy    <       0.00016548 Ry

     iteration #  7     ecut=    50.00 Ry     beta= 0.70
     CG style diagonalization
     ethr =  5.13E-08,  avg # of iterations =  3.5

     total cpu time spent up to now is       35.4 secs

     total energy              =    -317.34935304 Ry
     estimated scf accuracy    <       0.00008653 Ry

     iteration #  8     ecut=    50.00 Ry     beta= 0.70
     CG style diagonalization
     ethr =  5.13E-08,  avg # of iterations =  3.0

     total cpu time spent up to now is       38.1 secs

     total energy              =    -317.34934279 Ry
     estimated scf accuracy    <       0.00009762 Ry

     iteration #  9     ecut=    50.00 Ry     beta= 0.70
     CG style diagonalization
     ethr =  5.13E-08,  avg # of iterations =  3.0

     total cpu time spent up to now is       40.8 secs

     total energy              =    -317.34933377 Ry
     estimated scf accuracy    <       0.00006138 Ry

     iteration # 10     ecut=    50.00 Ry     beta= 0.70
     CG style diagonalization
     ethr =  5.13E-08,  avg # of iterations =  3.2

     total cpu time spent up to now is       43.7 secs

     total energy              =    -317.34933498 Ry
     estimated scf accuracy    <       0.00002918 Ry

     iteration # 11     ecut=    50.00 Ry     beta= 0.70
     CG style diagonalization
     ethr =  5.13E-08,  avg # of iterations =  3.5

     total cpu time spent up to now is       46.7 secs

     total energy              =    -317.34933176 Ry
     estimated scf accuracy    <       0.00002076 Ry

     iteration # 12     ecut=    50.00 Ry     beta= 0.70
     CG style diagonalization
     ethr =  5.13E-08,  avg # of iterations =  3.4

     total cpu time spent up to now is       49.7 secs

     total energy              =    -317.34933358 Ry
     estimated scf accuracy    <       0.00000340 Ry

     iteration # 13     ecut=    50.00 Ry     beta= 0.70
     CG style diagonalization
     ethr =  2.13E-08,  avg # of iterations =  4.9

     total cpu time spent up to now is       53.9 secs

     End of self-consistent calculation

          k = 0.0625 0.0625 0.0625 (  1829 PWs)   bands (ev):

    -9.0429  -9.0421  -9.0421  -8.9805  -8.9805  -3.8329   7.5882   8.0804
     8.0805  10.4717  10.5230  10.5232

          k = 0.0625 0.0625 0.1875 (  1839 PWs)   bands (ev):

    -9.0445  -9.0398  -9.0396  -8.9817  -8.9794  -3.6988   6.8128   7.5560
     7.7911  10.1523  10.9144  11.1946

          k = 0.0625 0.0625 0.3125 (  1823 PWs)   bands (ev):

    -9.0479  -9.0351  -9.0348  -8.9840  -8.9773  -3.4316   5.9506   6.9138
     7.0695   9.6265  11.7052  12.1195

          k = 0.0625 0.0625 0.4375 (  1825 PWs)   bands (ev):

    -9.0522  -9.0288  -9.0286  -8.9873  -8.9746  -3.0341   5.0364   6.3119
     6.3156   9.0984  10.9904  13.1161

          k = 0.0625 0.0625 0.5625 (  1822 PWs)   bands (ev):

    -9.0568  -9.0220  -9.0217  -8.9912  -8.9717  -2.5114   4.0527   5.6736
     5.8116   8.6409  10.0710  14.1111

          k = 0.0625 0.0625 0.6875 (  1809 PWs)   bands (ev):

    -9.0610  -9.0156  -9.0152  -8.9950  -8.9691  -1.8734   3.0199   5.1986
     5.4222   8.2852   9.3723  15.1242

          k = 0.0625 0.0625 0.8125 (  1800 PWs)   bands (ev):

    -9.0642  -9.0106  -9.0101  -8.9982  -8.9672  -1.1449   1.9998   4.8871
     5.1580   8.0445   8.9113  16.1788

          k = 0.0625 0.0625 0.9375 (  1801 PWs)   bands (ev):

    -9.0660  -9.0078  -9.0074  -8.9999  -8.9661  -0.4372   1.1374   4.7329
     5.0246   7.9242   8.6832  17.0487

          k = 0.0625 0.1875 0.1875 (  1836 PWs)   bands (ev):

    -9.0441  -9.0393  -9.0377  -8.9815  -8.9794  -3.5656   6.0157   7.1135
     7.9804  10.5801  10.7232  11.1232

          k = 0.0625 0.1875 0.3125 (  1830 PWs)   bands (ev):

    -9.0463  -9.0354  -9.0342  -8.9831  -8.9777  -3.3006   5.2036   6.4627
     7.5514  10.2696  11.1799  11.8436

          k = 0.0625 0.1875 0.4375 (  1823 PWs)   bands (ev):

    -9.0501  -9.0298  -9.0288  -8.9860  -8.9751  -2.9071   4.4205   5.8329
     6.7798   9.7528  11.4743  12.0571

          k = 0.0625 0.1875 0.5625 (  1824 PWs)   bands (ev):

    -9.0542  -9.0242  -9.0221  -8.9895  -8.9724  -2.3912   3.6409   5.2659
     6.0026   9.2741  10.6657  12.8978

          k = 0.0625 0.1875 0.6875 (  1814 PWs)   bands (ev):

    -9.0580  -9.0187  -9.0155  -8.9931  -8.9702  -1.7651   2.8190   4.7770
     5.4014   8.8855  10.0596  13.7885

          k = 0.0625 0.1875 0.8125 (  1810 PWs)   bands (ev):

    -9.0609  -9.0143  -9.0104  -8.9960  -8.9686  -1.0581   1.9557   4.4126
     5.0300   8.6133   9.6722  14.7176

          k = 0.0625 0.1875 0.9375 (  1808 PWs)   bands (ev):

    -9.0625  -9.0117  -9.0077  -8.9978  -8.9678  -0.3914   1.1959   4.2230
     4.8567   8.4734   9.4846  15.6614

          k = 0.0625 0.3125 0.3125 (  1831 PWs)   bands (ev):

    -9.0453  -9.0342  -9.0326  -8.9825  -8.9778  -3.0405   4.4411   5.8238
     7.6510  10.7857  11.1505  11.5108

          k = 0.0625 0.3125 0.4375 (  1831 PWs)   bands (ev):

    -9.0470  -9.0306  -9.0290  -8.9838  -8.9763  -2.6560   3.7348   5.2162
     7.1159  10.7215  11.0657  12.2876

          k = 0.0625 0.3125 0.5625 (  1825 PWs)   bands (ev):

    -9.0499  -9.0273  -9.0225  -8.9866  -8.9741  -2.1557   3.0862   4.6932
     6.2623  10.2850  11.4547  11.7844

          k = 0.0625 0.3125 0.6875 (  1821 PWs)   bands (ev):

    -9.0529  -9.0237  -9.0159  -8.9897  -8.9724  -1.5569   2.4663   4.2719
     5.4194   9.9052  11.1202  12.3111

          k = 0.0625 0.3125 0.8125 (  1820 PWs)   bands (ev):

    -9.0552  -9.0205  -9.0107  -8.9926  -8.9712  -0.8995   1.8401   3.9599
     4.7936   9.6396  10.8006  13.1321

          k = 0.0625 0.3125 0.9375 (  1812 PWs)   bands (ev):

    -9.0564  -9.0185  -9.0078  -8.9943  -8.9707  -0.3220   1.2854   3.7826
     4.4824   9.5044  10.6421  14.0386

          k = 0.0625 0.4375 0.4375 (  1831 PWs)   bands (ev):

    -9.0454  -9.0297  -9.0277  -8.9819  -8.9776  -2.2880   3.0994   4.6341
     7.0537  10.3446  11.8550  12.1157

          k = 0.0625 0.4375 0.5625 (  1823 PWs)   bands (ev):

    -9.0462  -9.0288  -9.0225  -8.9831  -8.9770  -1.8166   2.5428   4.1490
     6.4525  10.2853  11.5789  12.9283

          k = 0.0625 0.4375 0.6875 (  1817 PWs)   bands (ev):

    -9.0479  -9.0276  -9.0161  -8.9862  -8.9752  -1.2688   2.0658   3.7926
     5.5773  10.6386  11.3145  12.5446

          k = 0.0625 0.4375 0.8125 (  1817 PWs)   bands (ev):

    -9.0494  -9.0262  -9.0108  -8.9893  -8.9739  -0.7032   1.6577   3.5888
     4.7542  10.8209  11.5317  12.3133

          k = 0.0625 0.4375 0.9375 (  1813 PWs)   bands (ev):

    -9.0502  -9.0252  -9.0079  -8.9912  -8.9733  -0.2688   1.3539   3.5422
     4.2146  10.7587  11.8714  12.5965

          k = 0.0625 0.5625 0.5625 (  1813 PWs)   bands (ev):

    -9.0459  -9.0273  -9.0208  -8.9814  -8.9790  -1.3966   2.0752   3.7113
     6.3527   9.5511  12.8558  13.0836

          k = 0.0625 0.5625 0.6875 (  1814 PWs)   bands (ev):

    -9.0477  -9.0260  -9.0160  -8.9853  -8.9764  -0.9395   1.7133   3.4306
     5.7679   9.5263  12.6652  13.9258

          k = 0.0625 0.5625 0.8125 (  1818 PWs)   bands (ev):

    -9.0493  -9.0255  -9.0109  -8.9890  -8.9744  -0.5248   1.4716   3.3612
     4.9429  10.0277  12.3937  13.1988

          k = 0.0625 0.6875 0.6875 (  1816 PWs)   bands (ev):

    -9.0512  -9.0213  -9.0145  -8.9884  -8.9743  -0.6324   1.4653   3.2657
     5.7227   8.8464  12.9380  14.1248

          k = 0.0625 0.6875 0.8125 (  1813 PWs)   bands (ev):

    -9.0545  -9.0191  -9.0108  -8.9921  -8.9720  -0.4183   1.3338   3.3746
     5.2114   8.9217  11.7107  14.1225

          k = 0.0625 0.8125 0.8125 (  1817 PWs)   bands (ev):

    -9.0596  -9.0134  -9.0099  -8.9956  -8.9694  -0.3883   1.2441   3.6801
     5.2638   8.3327  10.4831  15.5964

          k = 0.1875 0.1875 0.1875 (  1835 PWs)   bands (ev):

    -9.0440  -9.0374  -9.0374  -8.9803  -8.9803  -3.4336   5.2329   7.5753
     7.5754  10.1233  11.1455  11.1459

          k = 0.1875 0.1875 0.3125 (  1826 PWs)   bands (ev):

    -9.0457  -9.0350  -9.0338  -8.9820  -8.9781  -3.1713   4.4500   7.0235
     7.3047  10.2349  10.9320  11.7395

          k = 0.1875 0.1875 0.4375 (  1832 PWs)   bands (ev):

    -9.0488  -9.0306  -9.0289  -8.9846  -8.9754  -2.7828   3.7367   6.4809
     6.4950   9.8802  11.5938  12.3865

          k = 0.1875 0.1875 0.5625 (  1828 PWs)   bands (ev):

    -9.0524  -9.0253  -9.0232  -8.9878  -8.9729  -2.2759   3.0903   5.5521
     6.0111   9.3146  11.4733  13.0818

          k = 0.1875 0.1875 0.6875 (  1817 PWs)   bands (ev):

    -9.0557  -9.0201  -9.0174  -8.9911  -8.9710  -1.6663   2.4730   4.6731
     5.6431   8.8342  10.9661  13.8544

          k = 0.1875 0.1875 0.8125 (  1811 PWs)   bands (ev):

    -9.0583  -9.0158  -9.0126  -8.9939  -8.9698  -0.9913   1.8324   4.0155
     5.3914   8.5014  10.6410  14.7074

          k = 0.1875 0.3125 0.3125 (  1834 PWs)   bands (ev):

    -9.0456  -9.0335  -9.0325  -8.9810  -8.9780  -2.9152   3.6946   6.6039
     7.4574  10.1617  11.1054  11.4308

          k = 0.1875 0.3125 0.4375 (  1832 PWs)   bands (ev):

    -9.0470  -9.0308  -9.0291  -8.9823  -8.9762  -2.5383   3.0267   6.0153
     7.0058  10.2985  10.9729  11.8964

          k = 0.1875 0.3125 0.5625 (  1823 PWs)   bands (ev):

    -9.0493  -9.0276  -9.0239  -8.9849  -8.9742  -2.0526   2.4627   5.3661
     6.2839   9.8575  11.5257  12.6112

          k = 0.1875 0.3125 0.6875 (  1815 PWs)   bands (ev):

    -9.0516  -9.0242  -9.0182  -8.9878  -8.9728  -1.4824   1.9996   4.6006
     5.7094   9.3996  12.0201  12.4816

          k = 0.1875 0.3125 0.8125 (  1818 PWs)   bands (ev):

    -9.0535  -9.0210  -9.0135  -8.9905  -8.9721  -0.8849   1.6188   3.8492
     5.3694   9.0817  11.8407  13.2305

          k = 0.1875 0.4375 0.4375 (  1825 PWs)   bands (ev):

    -9.0462  -9.0295  -9.0284  -8.9805  -8.9772  -2.1836   2.4087   5.4859
     7.0410  10.2932  11.3518  11.3943

          k = 0.1875 0.4375 0.5625 (  1817 PWs)   bands (ev):

    -9.0467  -9.0288  -9.0240  -8.9816  -8.9764  -1.7393   1.9191   4.9607
     6.5100  10.3611  10.9023  12.4742

          k = 0.1875 0.4375 0.6875 (  1810 PWs)   bands (ev):

    -9.0478  -9.0278  -9.0186  -8.9844  -8.9751  -1.2483   1.5868   4.4268
     5.7699  10.4012  10.9488  13.5344

          k = 0.1875 0.4375 0.8125 (  1815 PWs)   bands (ev):

    -9.0488  -9.0265  -9.0137  -8.9873  -8.9745  -0.7983   1.4445   3.8423
     5.2051  10.1607  11.6240  13.3181

          k = 0.1875 0.5625 0.5625 (  1816 PWs)   bands (ev):

    -9.0464  -9.0277  -9.0226  -8.9803  -8.9779  -1.3744   1.5293   4.5389
     6.4283   9.6878  12.1222  12.1627

          k = 0.1875 0.5625 0.6875 (  1816 PWs)   bands (ev):

    -9.0476  -9.0269  -9.0184  -8.9838  -8.9759  -1.0303   1.3580   4.1636
     5.8969   9.6743  11.8417  13.5103

          k = 0.1875 0.6875 0.6875 (  1821 PWs)   bands (ev):

    -9.0506  -9.0230  -9.0171  -8.9870  -8.9740  -0.9065   1.3873   3.9366
     5.8348   9.0150  12.9395  13.3099

          k = 0.3125 0.3125 0.3125 (  1841 PWs)   bands (ev):

    -9.0462  -9.0320  -9.0320  -8.9788  -8.9788  -2.6684   2.9545   7.1247
     7.1248   9.7145  11.1896  11.1898

          k = 0.3125 0.3125 0.4375 (  1836 PWs)   bands (ev):

    -9.0471  -9.0306  -9.0293  -8.9801  -8.9764  -2.3099   2.3216   6.7357
     6.7952   9.9339  10.8465  11.4677

          k = 0.3125 0.3125 0.5625 (  1821 PWs)   bands (ev):

    -9.0483  -9.0284  -9.0255  -8.9821  -8.9746  -1.8600   1.8274   5.9088
     6.3621   9.7863  11.3130  11.9280

          k = 0.3125 0.3125 0.6875 (  1811 PWs)   bands (ev):

    -9.0495  -9.0256  -9.0211  -8.9846  -8.9739  -1.3620   1.5022   4.8902
     6.0529   9.3441  12.2665  12.5502

          k = 0.3125 0.4375 0.4375 (  1827 PWs)   bands (ev):

    -9.0472  -9.0293  -9.0291  -8.9784  -8.9767  -1.9887   1.7415   6.3935
     6.9930   9.8773  11.0199  11.0321

          k = 0.3125 0.4375 0.5625 (  1819 PWs)   bands (ev):

    -9.0474  -9.0288  -9.0262  -8.9794  -8.9759  -1.6139   1.3422   5.8635
     6.6054  10.1607  10.6606  11.6411

          k = 0.3125 0.4375 0.6875 (  1815 PWs)   bands (ev):

    -9.0475  -9.0280  -9.0222  -8.9816  -8.9755  -1.2620   1.1937   5.0741
     6.1670   9.9543  11.0871  12.5344

          k = 0.3125 0.5625 0.5625 (  1824 PWs)   bands (ev):

    -9.0473  -9.0283  -9.0254  -8.9788  -8.9766  -1.3858   1.1031   5.5434
     6.5654   9.8984  11.1930  11.5362

          k = 0.4375 0.4375 0.4375 (  1823 PWs)   bands (ev):

    -9.0479  -9.0290  -9.0290  -8.9767  -8.9767  -1.7396   1.2415   6.8880
     6.8884   9.5015  10.9276  10.9277

          k = 0.4375 0.4375 0.5625 (  1819 PWs)   bands (ev):

    -9.0479  -9.0287  -9.0277  -8.9774  -8.9760  -1.5091   1.0000   6.4696
     6.7328   9.7966  10.7697  11.1061

     the Fermi energy is     5.5221 ev

!    total energy              =    -317.34933816 Ry
     total all-electron energy =     -4373.656780 Ry
     estimated scf accuracy    <       0.00000035 Ry
     smearing contrib. (-TS)   =      -0.00133093 Ry
     internal energy E=F+TS    =    -317.34800724 Ry

     The total energy is F=E-TS. E is the sum of the following terms:
     one-electron contribution =    -124.52217878 Ry
     hartree contribution      =      75.76479122 Ry
     xc contribution           =     -40.61910830 Ry
     ewald contribution        =     -82.24853885 Ry
     one-center paw contrib.   =    -145.72297253 Ry

     convergence has been achieved in  13 iterations

     Forces acting on atoms (cartesian axes, Ry/au):

     atom    1 type  2   force =    -0.00000000    0.00000000    0.00000000
     atom    2 type  1   force =     0.00000000    0.00000000    0.00000000

     Total force =     0.000000     Total SCF correction =     0.000000


     Computing stress (Cartesian axis) and pressure

          total   stress  (Ry/bohr**3)                   (kbar)     P=       71.30
   0.00048468  -0.00000000  -0.00000000           71.30       -0.00       -0.00
  -0.00000000   0.00048468  -0.00000000           -0.00       71.30       -0.00
   0.00000000  -0.00000000   0.00048468            0.00       -0.00       71.30


     Writing all to output data dir /home/nico-sachs/source/q-e/tempdir/al.save/ :
     XML data file, charge density, pseudopotentials, collected wavefunctions

     init_run     :      1.56s CPU      1.61s WALL (       1 calls)
     electrons    :     51.40s CPU     52.07s WALL (       1 calls)
     forces       :      0.38s CPU      0.38s WALL (       1 calls)
     stress       :      1.67s CPU      1.68s WALL (       1 calls)

     Called by init_run:
     wfcinit      :      0.73s CPU      0.74s WALL (       1 calls)
     potinit      :      0.34s CPU      0.37s WALL (       1 calls)
     hinit0       :      0.44s CPU      0.44s WALL (       1 calls)

     Called by electrons:
     c_bands      :     42.97s CPU     43.60s WALL (      14 calls)
     sum_band     :      3.72s CPU      3.75s WALL (      14 calls)
     v_of_rho     :      0.11s CPU      0.11s WALL (      14 calls)
     newd         :      0.47s CPU      0.48s WALL (      14 calls)
     PAW_pot      :      4.46s CPU      4.51s WALL (      14 calls)
     mix_rho      :      0.01s CPU      0.01s WALL (      14 calls)

     Called by c_bands:
     init_us_2    :      0.90s CPU      0.91s WALL (    1860 calls)
     ccgdiagg     :     35.95s CPU     36.53s WALL (     840 calls)
     wfcrot       :      7.19s CPU      7.23s WALL (     780 calls)

     Called by *cgdiagg:
     h_psi        :     25.69s CPU     26.06s WALL (   35252 calls)
     s_psi        :      8.19s CPU      8.32s WALL (   69724 calls)

     Called by h_psi:
     h_psi:calbec :      5.82s CPU      5.91s WALL (   35252 calls)
     vloc_psi     :     15.00s CPU     15.23s WALL (   35252 calls)
                                        0.00s GPU  (   35252 calls)
     add_vuspsi   :      4.60s CPU      4.67s WALL (   35252 calls)
     hs_1psi      :     24.36s CPU     24.75s WALL (   34472 calls)
     s_1psi       :      8.62s CPU      8.75s WALL (   34472 calls)

     General routines
     calbec       :     12.76s CPU     12.94s WALL (   71584 calls)
     fft          :      0.16s CPU      0.16s WALL (     180 calls)
     ffts         :      0.00s CPU      0.00s WALL (      14 calls)
     fftw         :     14.58s CPU     14.80s WALL (   97864 calls)

     Parallel routines

     PWSCF        :     55.18s CPU     55.98s WALL


   This run was terminated on:  16:22:18  26Jan2026            

=------------------------------------------------------------------------------=
   JOB DONE.
=------------------------------------------------------------------------------=
