
     Program PWSCF v.7.5 starts on 27Jan2026 at 14: 8:43 

     This program is part of the open-source Quantum ESPRESSO suite
     for quantum simulation of materials; please cite
         "P. Giannozzi et al., J. Phys.:Condens. Matter 21 395502 (2009);
         "P. Giannozzi et al., J. Phys.:Condens. Matter 29 465901 (2017);
         "P. Giannozzi et al., J. Chem. Phys. 152 154105 (2020);
          URL http://www.quantum-espresso.org", 
     in publications or presentations arising from this work. More details at
     http://www.quantum-espresso.org/quote

     Parallel version (MPI), running on     4 processors

     MPI processes distributed on     1 nodes
     23569 MiB available memory on the printing compute node when the environment starts

     Waiting for input...
     Reading input from standard input

     Current dimensions of program PWSCF are:
     Max number of different atomic species (ntypx) = 10
     Max number of k-points (npk) =  40000
     Max angular momentum in pseudopotentials (lmaxx) =  4
     file Ga.pbe-dn-kjpaw_psl.1.0.0.UPF: wavefunction(s)  4S renormalized
     Message from routine set_cutoff:
     ecutrho < 4*ecutwfc, are you sure?

     R & G space division:  proc/nbgrp/npool/nimage =       4
     Subspace diagonalization in iterative solution of the eigenvalue problem:
     a serial algorithm will be used


     Parallelization info
     --------------------
     sticks:   dense  smooth     PW     G-vecs:    dense   smooth      PW
     Min         168     168     63                 5660     5660    1397
     Max         169     169     64                 5663     5663    1406
     Sum         673     673    253                22647    22647    5599

     Using Slab Decomposition



     bravais-lattice index     =            4
     lattice parameter (alat)  =       6.0263  a.u.
     unit-cell volume          =     308.1662 (a.u.)^3
     number of atoms/cell      =            4
     number of atomic types    =            2
     number of electrons       =        36.00
     number of Kohn-Sham states=           18
     kinetic-energy cutoff     =      90.0000  Ry
     charge density cutoff     =     266.6667  Ry
     scf convergence threshold =      1.0E-06
     mixing beta               =       0.7000
     number of iterations used =            8  plain     mixing
     Exchange-correlation= PBE
                           (   1   4   3   4   0   0   0)

     celldm(1)=   6.026337  celldm(2)=   0.000000  celldm(3)=   1.625902
     celldm(4)=   0.000000  celldm(5)=   0.000000  celldm(6)=   0.000000

     crystal axes: (cart. coord. in units of alat)
               a(1) = (   1.000000   0.000000   0.000000 )  
               a(2) = (  -0.500000   0.866025   0.000000 )  
               a(3) = (   0.000000   0.000000   1.625902 )  

     reciprocal axes: (cart. coord. in units 2 pi/alat)
               b(1) = (  1.000000  0.577350 -0.000000 )  
               b(2) = (  0.000000  1.154701  0.000000 )  
               b(3) = (  0.000000 -0.000000  0.615043 )  


     PseudoPot. # 1 for Ga read from file:
     /home/nico-sachs/source/q-e/SSSP_1.3.0_PBE_efficiency/Ga.pbe-dn-kjpaw_psl.1.0.0.UPF
     MD5 check sum: a27b4342b1af7e5f338de752e9ed7044
     Pseudo is Projector augmented-wave + core cor, Zval = 13.0
     Generated using "atomic" code by A. Dal Corso  v.5.1
     Shape of augmentation charge: PSQ
     Using radial grid of 1205 points,  6 beta functions with: 
                l(1) =   0
                l(2) =   0
                l(3) =   1
                l(4) =   1
                l(5) =   2
                l(6) =   2
     Q(r) pseudized with 0 coefficients 


     PseudoPot. # 2 for N  read from file:
     /home/nico-sachs/source/q-e/SSSP_1.3.0_PBE_efficiency/N.pbe-n-radius_5.UPF
     MD5 check sum: 16739722b17309cd8fe442a2ace49922
     Pseudo is Ultrasoft + core correction, Zval =  5.0
     Generated using "atomic" code by A. Dal Corso  v.5.1
     Using radial grid of 1085 points,  4 beta functions with: 
                l(1) =   0
                l(2) =   0
                l(3) =   1
                l(4) =   1
     Q(r) pseudized with 0 coefficients 


     atomic species   valence    mass     pseudopotential
     Ga               13.00    69.72300     Ga( 1.00)
     N                 5.00    14.00700     N ( 1.00)

     12 Sym. Ops. (no inversion) found ( 6 have fractional translation)



   Cartesian axes

     site n.     atom                  positions (alat units)
         1        Ga     tau(   1) = (  -0.0000000   0.5773503   0.0000000  )
         2        Ga     tau(   2) = (   0.5000000   0.2886751   0.8129508  )
         3        N      tau(   3) = (  -0.0000000   0.5773503   0.6097131  )
         4        N      tau(   4) = (   0.5000000   0.2886751   1.4226638  )

     number of k points=    21
                       cart. coord. in units 2pi/alat
        k(    1) = (   0.0000000   0.0000000   0.0000000), wk =   0.0138889
        k(    2) = (   0.0000000   0.0000000   0.1537608), wk =   0.0277778
        k(    3) = (   0.0000000   0.0000000  -0.3075217), wk =   0.0138889
        k(    4) = (   0.0000000   0.1924501   0.0000000), wk =   0.0833333
        k(    5) = (   0.0000000   0.1924501   0.1537608), wk =   0.1666667
        k(    6) = (   0.0000000   0.1924501  -0.3075217), wk =   0.0833333
        k(    7) = (   0.0000000   0.3849002   0.0000000), wk =   0.0833333
        k(    8) = (   0.0000000   0.3849002   0.1537608), wk =   0.1666667
        k(    9) = (   0.0000000   0.3849002  -0.3075217), wk =   0.0833333
        k(   10) = (   0.0000000  -0.5773503   0.0000000), wk =   0.0416667
        k(   11) = (   0.0000000  -0.5773503   0.1537608), wk =   0.0833333
        k(   12) = (   0.0000000  -0.5773503  -0.3075217), wk =   0.0416667
        k(   13) = (   0.1666667   0.2886751   0.0000000), wk =   0.0833333
        k(   14) = (   0.1666667   0.2886751   0.1537608), wk =   0.1666667
        k(   15) = (   0.1666667   0.2886751  -0.3075217), wk =   0.0833333
        k(   16) = (   0.1666667   0.4811252   0.0000000), wk =   0.1666667
        k(   17) = (   0.1666667   0.4811252   0.1537608), wk =   0.3333333
        k(   18) = (   0.1666667   0.4811252  -0.3075217), wk =   0.1666667
        k(   19) = (   0.3333333   0.5773503   0.0000000), wk =   0.0277778
        k(   20) = (   0.3333333   0.5773503   0.1537608), wk =   0.0555556
        k(   21) = (   0.3333333   0.5773503  -0.3075217), wk =   0.0277778

     Dense  grid:    22647 G-vectors     FFT dimensions: (  32,  32,  54)

     Estimated max dynamical RAM per process >      31.09 MB

     Estimated total dynamical RAM >     124.36 MB

     Check: negative core charge=   -0.000003

     Initial potential from superposition of free atoms

     starting charge      35.9941, renormalised to      36.0000
     Starting wfcs are   26 randomized atomic wfcs
     Checking if some PAW data can be deallocated... 

     total cpu time spent up to now is        1.2 secs

     Self-consistent Calculation

     iteration #  1     ecut=    90.00 Ry     beta= 0.70
     CG style diagonalization
     ethr =  1.00E-02,  avg # of iterations =  2.0

     total cpu time spent up to now is        2.5 secs

     total energy              =    -595.58044784 Ry
     estimated scf accuracy    <       1.11375677 Ry

     iteration #  2     ecut=    90.00 Ry     beta= 0.70
     CG style diagonalization
     ethr =  3.09E-03,  avg # of iterations =  4.8

     total cpu time spent up to now is        4.9 secs

     total energy              =    -596.02826910 Ry
     estimated scf accuracy    <       1.07646017 Ry

     iteration #  3     ecut=    90.00 Ry     beta= 0.70
     CG style diagonalization
     ethr =  2.99E-03,  avg # of iterations =  3.8

     total cpu time spent up to now is        6.9 secs

     total energy              =    -596.21462611 Ry
     estimated scf accuracy    <       0.00934397 Ry

     iteration #  4     ecut=    90.00 Ry     beta= 0.70
     CG style diagonalization
     c_bands:  1 eigenvalues not converged
     c_bands:  1 eigenvalues not converged
     c_bands:  1 eigenvalues not converged
     c_bands:  1 eigenvalues not converged
     c_bands:  2 eigenvalues not converged
     c_bands:  1 eigenvalues not converged
     c_bands:  1 eigenvalues not converged
     c_bands:  1 eigenvalues not converged
     c_bands:  1 eigenvalues not converged
     c_bands:  1 eigenvalues not converged
     ethr =  2.60E-05,  avg # of iterations =  9.9

     total cpu time spent up to now is       11.8 secs

     total energy              =    -596.35951397 Ry
     estimated scf accuracy    <       0.03336798 Ry

     iteration #  5     ecut=    90.00 Ry     beta= 0.70
     CG style diagonalization
     ethr =  2.60E-05,  avg # of iterations =  4.1

     total cpu time spent up to now is       14.0 secs

     total energy              =    -596.36501298 Ry
     estimated scf accuracy    <       0.05016399 Ry

     iteration #  6     ecut=    90.00 Ry     beta= 0.70
     CG style diagonalization
     ethr =  2.60E-05,  avg # of iterations =  5.0

     total cpu time spent up to now is       16.5 secs

     total energy              =    -596.36719494 Ry
     estimated scf accuracy    <       0.12498670 Ry

     iteration #  7     ecut=    90.00 Ry     beta= 0.70
     CG style diagonalization
     ethr =  2.60E-05,  avg # of iterations =  3.8

     total cpu time spent up to now is       18.5 secs

     total energy              =    -596.36884378 Ry
     estimated scf accuracy    <       0.02531206 Ry

     iteration #  8     ecut=    90.00 Ry     beta= 0.70
     CG style diagonalization
     ethr =  2.60E-05,  avg # of iterations =  3.1

     total cpu time spent up to now is       20.3 secs

     total energy              =    -596.37029687 Ry
     estimated scf accuracy    <       0.01890882 Ry

     iteration #  9     ecut=    90.00 Ry     beta= 0.70
     CG style diagonalization
     ethr =  2.60E-05,  avg # of iterations =  3.0

     total cpu time spent up to now is       21.9 secs

     total energy              =    -596.36731023 Ry
     estimated scf accuracy    <       0.02833927 Ry

     iteration # 10     ecut=    90.00 Ry     beta= 0.70
     CG style diagonalization
     ethr =  2.60E-05,  avg # of iterations =  3.7

     total cpu time spent up to now is       23.9 secs

     total energy              =    -596.36930233 Ry
     estimated scf accuracy    <       0.00348157 Ry

     iteration # 11     ecut=    90.00 Ry     beta= 0.70
     CG style diagonalization
     ethr =  9.67E-06,  avg # of iterations =  3.5

     total cpu time spent up to now is       26.2 secs

     total energy              =    -596.36834122 Ry
     estimated scf accuracy    <       0.01020126 Ry

     iteration # 12     ecut=    90.00 Ry     beta= 0.70
     CG style diagonalization
     ethr =  9.67E-06,  avg # of iterations =  3.4

     total cpu time spent up to now is       28.1 secs

     total energy              =    -596.36880749 Ry
     estimated scf accuracy    <       0.00024915 Ry

     iteration # 13     ecut=    90.00 Ry     beta= 0.70
     CG style diagonalization
     ethr =  6.92E-07,  avg # of iterations =  6.1

     total cpu time spent up to now is       31.2 secs

     total energy              =    -596.36922188 Ry
     estimated scf accuracy    <       0.00053132 Ry

     iteration # 14     ecut=    90.00 Ry     beta= 0.70
     CG style diagonalization
     ethr =  6.92E-07,  avg # of iterations =  3.7

     total cpu time spent up to now is       33.2 secs

     total energy              =    -596.36925222 Ry
     estimated scf accuracy    <       0.00026663 Ry

     iteration # 15     ecut=    90.00 Ry     beta= 0.70
     CG style diagonalization
     ethr =  6.92E-07,  avg # of iterations =  3.2

     total cpu time spent up to now is       34.9 secs

     total energy              =    -596.36925523 Ry
     estimated scf accuracy    <       0.00020249 Ry

     iteration # 16     ecut=    90.00 Ry     beta= 0.70
     CG style diagonalization
     ethr =  5.62E-07,  avg # of iterations =  3.3

     total cpu time spent up to now is       36.6 secs

     total energy              =    -596.36926305 Ry
     estimated scf accuracy    <       0.00017182 Ry

     iteration # 17     ecut=    90.00 Ry     beta= 0.70
     CG style diagonalization
     ethr =  4.77E-07,  avg # of iterations =  3.3

     total cpu time spent up to now is       38.3 secs

     total energy              =    -596.36928716 Ry
     estimated scf accuracy    <       0.00008950 Ry

     iteration # 18     ecut=    90.00 Ry     beta= 0.70
     CG style diagonalization
     ethr =  2.49E-07,  avg # of iterations =  4.0

     total cpu time spent up to now is       40.3 secs

     total energy              =    -596.36932724 Ry
     estimated scf accuracy    <       0.00006803 Ry

     iteration # 19     ecut=    90.00 Ry     beta= 0.70
     CG style diagonalization
     ethr =  1.89E-07,  avg # of iterations =  3.5

     total cpu time spent up to now is       42.3 secs

     total energy              =    -596.36940256 Ry
     estimated scf accuracy    <       0.00004372 Ry

     iteration # 20     ecut=    90.00 Ry     beta= 0.70
     CG style diagonalization
     ethr =  1.21E-07,  avg # of iterations =  4.8

     total cpu time spent up to now is       44.9 secs

     total energy              =    -596.36934617 Ry
     estimated scf accuracy    <       0.00028318 Ry

     iteration # 21     ecut=    90.00 Ry     beta= 0.70
     CG style diagonalization
     ethr =  1.21E-07,  avg # of iterations =  4.3

     total cpu time spent up to now is       47.1 secs

     total energy              =    -596.36934599 Ry
     estimated scf accuracy    <       0.00002333 Ry

     iteration # 22     ecut=    90.00 Ry     beta= 0.70
     CG style diagonalization
     ethr =  6.48E-08,  avg # of iterations =  6.2

     total cpu time spent up to now is       50.2 secs

     total energy              =    -596.36936265 Ry
     estimated scf accuracy    <       0.00005546 Ry

     iteration # 23     ecut=    90.00 Ry     beta= 0.70
     CG style diagonalization
     ethr =  6.48E-08,  avg # of iterations =  4.5

     total cpu time spent up to now is       52.5 secs

     total energy              =    -596.36937309 Ry
     estimated scf accuracy    <       0.00000895 Ry

     iteration # 24     ecut=    90.00 Ry     beta= 0.70
     CG style diagonalization
     ethr =  2.49E-08,  avg # of iterations =  4.2

     total cpu time spent up to now is       54.6 secs

     total energy              =    -596.36937613 Ry
     estimated scf accuracy    <       0.00000409 Ry

     iteration # 25     ecut=    90.00 Ry     beta= 0.70
     CG style diagonalization
     ethr =  1.14E-08,  avg # of iterations =  4.3

     total cpu time spent up to now is       56.9 secs

     total energy              =    -596.36937787 Ry
     estimated scf accuracy    <       0.00000201 Ry

     iteration # 26     ecut=    90.00 Ry     beta= 0.70
     CG style diagonalization
     ethr =  5.58E-09,  avg # of iterations =  4.7

     total cpu time spent up to now is       59.3 secs

     total energy              =    -596.36937886 Ry
     estimated scf accuracy    <       0.00000118 Ry

     iteration # 27     ecut=    90.00 Ry     beta= 0.70
     CG style diagonalization
     ethr =  3.28E-09,  avg # of iterations =  4.8

     total cpu time spent up to now is       62.0 secs

     End of self-consistent calculation

          k = 0.0000 0.0000 0.0000 (  4427 PWs)   bands (ev):

    -6.2578  -5.3507  -3.7616  -3.7408  -3.7408  -3.6789  -3.6789  -3.4930
    -3.4930  -3.3936  -3.3936  -2.1363   2.6390   8.6802   8.6802   9.6655
     9.7278   9.7278

          k = 0.0000 0.0000 0.1538 (  4422 PWs)   bands (ev):

    -6.0823  -5.4229  -3.7371  -3.7371  -3.7045  -3.6929  -3.6929  -3.4735
    -3.4735  -3.4036  -3.4036  -2.6884   3.6936   8.1721   8.8268   8.8268
     9.5676   9.5676

          k = 0.0000 0.0000-0.3075 (  4386 PWs)   bands (ev):

    -5.6968  -5.6968  -3.7199  -3.7199  -3.7199  -3.7199  -3.4340  -3.4340
    -3.4340  -3.4340  -3.4076  -3.4076   5.8640   5.8640   9.1904   9.1904
     9.1904   9.1904

          k = 0.0000 0.1925 0.0000 (  4448 PWs)   bands (ev):

    -6.0064  -5.2926  -3.7287  -3.7071  -3.6642  -3.6292  -3.6284  -3.5140
    -3.4916  -3.4299  -3.3881  -1.9516   3.0234   7.0036   8.0064   8.1731
     9.3782   9.4910

          k = 0.0000 0.1925 0.1538 (  4432 PWs)   bands (ev):

    -5.8557  -5.3418  -3.7193  -3.6993  -3.6705  -3.6434  -3.6047  -3.4766
    -3.4735  -3.4304  -3.4005  -2.4650   3.9355   7.1196   7.4500   8.3499
     9.0127   9.2793

          k = 0.0000 0.1925-0.3075 (  4420 PWs)   bands (ev):

    -5.5435  -5.5435  -3.6947  -3.6947  -3.6749  -3.6749  -3.5177  -3.5177
    -3.4343  -3.4343  -3.1679  -3.1679   5.6999   5.6999   8.0842   8.0842
     8.7973   8.7973

          k = 0.0000 0.3849 0.0000 (  4436 PWs)   bands (ev):

    -5.5467  -5.2147  -3.6914  -3.6723  -3.5943  -3.5313  -3.5295  -3.4956
    -3.4470  -3.3772  -3.0747  -1.5891   3.7568   4.8357   5.8339   7.3426
     8.4348   8.9926

          k = 0.0000 0.3849 0.1538 (  4440 PWs)   bands (ev):

    -5.4621  -5.2279  -3.6989  -3.6502  -3.6264  -3.5478  -3.5308  -3.4789
    -3.4398  -3.3911  -2.9580  -1.9449   3.7686   5.0301   6.0374   7.5556
     8.5370   8.7148

          k = 0.0000 0.3849-0.3075 (  4454 PWs)   bands (ev):

    -5.3076  -5.3076  -3.6827  -3.6827  -3.5975  -3.5975  -3.4969  -3.4969
    -3.4185  -3.4185  -2.5635  -2.5635   4.2528   4.2528   7.6330   7.6330
     8.1038   8.1038

          k = 0.0000-0.5774 0.0000 (  4474 PWs)   bands (ev):

    -5.3683  -5.1938  -3.6945  -3.6705  -3.5764  -3.5329  -3.4851  -3.4788
    -3.4033  -3.3683  -2.2524  -1.7122   3.2800   4.4595   5.4928   6.9810
     7.4905   8.7489

          k = 0.0000-0.5774 0.1538 (  4456 PWs)   bands (ev):

    -5.3173  -5.1939  -3.7070  -3.6415  -3.6189  -3.5359  -3.5071  -3.4386
    -3.4019  -3.3807  -2.1968  -1.8076   3.0124   3.8647   6.4159   7.2070
     8.0195   8.4473

          k = 0.0000-0.5774-0.3075 (  4452 PWs)   bands (ev):

    -5.2293  -5.2293  -3.6966  -3.6966  -3.5716  -3.5716  -3.4625  -3.4625
    -3.3959  -3.3959  -2.0252  -2.0252   3.1293   3.1293   7.7908   7.7908
     7.8168   7.8168

          k = 0.1667 0.2887 0.0000 (  4443 PWs)   bands (ev):

    -5.6505  -5.2298  -3.6961  -3.6734  -3.6050  -3.5810  -3.5329  -3.4721
    -3.4613  -3.4152  -3.2548  -1.6567   3.6606   5.6793   6.0566   7.3259
     8.7178   8.8028

          k = 0.1667 0.2887 0.1538 (  4445 PWs)   bands (ev):

    -5.5480  -5.2502  -3.6788  -3.6757  -3.6193  -3.6058  -3.5118  -3.5059
    -3.4385  -3.4224  -3.1472  -2.0763   4.0813   5.7197   6.3001   7.2879
     8.4091   8.7926

          k = 0.1667 0.2887-0.3075 (  4448 PWs)   bands (ev):

    -5.3556  -5.3556  -3.6587  -3.6587  -3.6313  -3.6313  -3.5276  -3.5276
    -3.4238  -3.4238  -2.7526  -2.7526   4.8884   4.8884   7.6074   7.6074
     7.9177   7.9177

          k = 0.1667 0.4811 0.0000 (  4446 PWs)   bands (ev):

    -5.3574  -5.1988  -3.7172  -3.6349  -3.5470  -3.5320  -3.5108  -3.4905
    -3.4289  -3.3948  -2.4158  -1.5039   3.7177   4.6727   5.5248   6.0992
     7.6995   7.9671

          k = 0.1667 0.4811 0.1538 (  4450 PWs)   bands (ev):

    -5.3074  -5.1960  -3.6869  -3.6520  -3.5978  -3.5337  -3.5118  -3.4696
    -3.4213  -3.4114  -2.3217  -1.6757   3.4530   4.2402   5.9668   6.7342
     7.5287   8.2203

          k = 0.1667 0.4811-0.3075 (  4450 PWs)   bands (ev):

    -5.2246  -5.2246  -3.6616  -3.6616  -3.5915  -3.5915  -3.4899  -3.4899
    -3.4139  -3.4139  -2.0395  -2.0395   3.5824   3.5824   6.6770   6.6770
     8.0621   8.0621

          k = 0.3333 0.5774 0.0000 (  4449 PWs)   bands (ev):

    -5.2345  -5.2345  -3.7462  -3.5393  -3.5393  -3.5211  -3.5072  -3.5072
    -3.4604  -3.4130  -1.7177  -1.7177   4.3963   4.3963   4.4470   6.7179
     6.7179   7.0355

          k = 0.3333 0.5774 0.1538 (  4449 PWs)   bands (ev):

    -5.2119  -5.2119  -3.7061  -3.5928  -3.5928  -3.5299  -3.4666  -3.4666
    -3.4648  -3.4489  -1.7120  -1.7120   3.9087   3.9087   4.7453   6.5299
     7.5208   7.5208

          k = 0.3333 0.5774-0.3075 (  4494 PWs)   bands (ev):

    -5.1887  -5.1887  -3.6252  -3.6252  -3.6073  -3.6073  -3.4721  -3.4721
    -3.4475  -3.4475  -1.7061  -1.7061   3.5650   3.5650   5.5452   5.5452
     8.2354   8.2354

     highest occupied level (ev):     9.7278

!    total energy              =    -596.36937960 Ry
     estimated scf accuracy    <       0.00000030 Ry

     The total energy is the sum of the following terms:
     one-electron contribution =    -181.37643854 Ry
     hartree contribution      =     130.14298090 Ry
     xc contribution           =     -87.87820445 Ry
     ewald contribution        =    -233.28276133 Ry
     one-center paw contrib.   =    -223.97495617 Ry

     convergence has been achieved in  27 iterations

     Forces acting on atoms (cartesian axes, Ry/au):

     atom    1 type  1   force =     0.00000000    0.00000000   -0.00483625
     atom    2 type  1   force =    -0.00000000   -0.00000000   -0.00483625
     atom    3 type  2   force =     0.00000000    0.00000000    0.00483625
     atom    4 type  2   force =    -0.00000000    0.00000000    0.00483625

     Total force =     0.009673     Total SCF correction =     0.000044


     Computing stress (Cartesian axis) and pressure

          total   stress  (Ry/bohr**3)                   (kbar)     P=       53.00
   0.00032166   0.00000000   0.00000000           47.32        0.00        0.00
   0.00000000   0.00032166   0.00000000            0.00       47.32        0.00
   0.00000000   0.00000000   0.00043763            0.00        0.00       64.38


     Writing all to output data dir /home/nico-sachs/source/q-e/tempdir/gan.save/ :
     XML data file, charge density, pseudopotentials, collected wavefunctions

     init_run     :      1.01s CPU      1.07s WALL (       1 calls)
     electrons    :     58.57s CPU     60.73s WALL (       1 calls)
     forces       :      0.27s CPU      0.27s WALL (       1 calls)
     stress       :      1.00s CPU      1.01s WALL (       1 calls)

     Called by init_run:
     wfcinit      :      0.46s CPU      0.48s WALL (       1 calls)
     potinit      :      0.23s CPU      0.27s WALL (       1 calls)
     hinit0       :      0.27s CPU      0.27s WALL (       1 calls)

     Called by electrons:
     c_bands      :     47.96s CPU     49.93s WALL (      27 calls)
     sum_band     :      3.51s CPU      3.67s WALL (      27 calls)
     v_of_rho     :      0.16s CPU      0.17s WALL (      28 calls)
     newd         :      0.61s CPU      0.62s WALL (      28 calls)
     PAW_pot      :      6.51s CPU      6.55s WALL (      28 calls)
     mix_rho      :      0.05s CPU      0.05s WALL (      27 calls)

     Called by c_bands:
     init_us_2    :      0.55s CPU      0.57s WALL (    1197 calls)
     ccgdiagg     :     40.00s CPU     41.69s WALL (     567 calls)
     wfcrot       :      7.95s CPU      8.23s WALL (     567 calls)

     Called by *cgdiagg:
     h_psi        :     23.84s CPU     24.98s WALL (   34218 calls)
     s_psi        :      9.46s CPU      9.84s WALL (   67869 calls)

     Called by h_psi:
     h_psi:calbec :      8.08s CPU      8.43s WALL (   34218 calls)
     vloc_psi     :      9.91s CPU     10.47s WALL (   34218 calls)
                                        0.00s GPU  (   34218 calls)
     add_vuspsi   :      5.51s CPU      5.72s WALL (   34218 calls)
     hs_1psi      :     23.42s CPU     24.50s WALL (   33651 calls)
     s_1psi       :     10.70s CPU     11.12s WALL (   33651 calls)

     General routines
     calbec       :     16.59s CPU     17.24s WALL (   68793 calls)
     fft          :      0.18s CPU      0.19s WALL (     333 calls)
     ffts         :      0.00s CPU      0.00s WALL (      27 calls)
     fftw         :      9.13s CPU      9.70s WALL (   98256 calls)

     Parallel routines

     PWSCF        :   1m 1.04s CPU   1m 3.31s WALL


   This run was terminated on:  14: 9:46  27Jan2026            

=------------------------------------------------------------------------------=
   JOB DONE.
=------------------------------------------------------------------------------=
