
     Program PWSCF v.7.5 starts on 26Jan2026 at 16: 4:55 

     This program is part of the open-source Quantum ESPRESSO suite
     for quantum simulation of materials; please cite
         "P. Giannozzi et al., J. Phys.:Condens. Matter 21 395502 (2009);
         "P. Giannozzi et al., J. Phys.:Condens. Matter 29 465901 (2017);
         "P. Giannozzi et al., J. Chem. Phys. 152 154105 (2020);
          URL http://www.quantum-espresso.org", 
     in publications or presentations arising from this work. More details at
     http://www.quantum-espresso.org/quote

     Parallel version (MPI), running on     1 processors

     MPI processes distributed on     1 nodes
     24810 MiB available memory on the printing compute node when the environment starts

     Waiting for input...
     Reading input from standard input

     Current dimensions of program PWSCF are:
     Max number of different atomic species (ntypx) = 10
     Max number of k-points (npk) =  40000
     Max angular momentum in pseudopotentials (lmaxx) =  4
     file Ga.pbe-dn-kjpaw_psl.1.0.0.UPF: wavefunction(s)  4S renormalized
     file Al.pbe-n-kjpaw_psl.1.0.0.UPF: wavefunction(s)  3S 3P renormalized
     Message from routine volume:
     axis vectors are left-handed
     Message from routine setup:
     using ibrav=0 with symmetry is DISCOURAGED, use correct ibrav instead

     Subspace diagonalization in iterative solution of the eigenvalue problem:
     a serial algorithm will be used


     G-vector sticks info
     --------------------
     sticks:   dense  smooth     PW     G-vecs:    dense   smooth      PW
     Sum        1237    1237    361                28325    28325    4477

     Using Slab Decomposition



     bravais-lattice index     =            0
     lattice parameter (alat)  =      10.6829  a.u.
     unit-cell volume          =     304.7984 (a.u.)^3
     number of atoms/cell      =            2
     number of atomic types    =            2
     number of electrons       =        16.00
     number of Kohn-Sham states=           12
     kinetic-energy cutoff     =      77.7778  Ry
     charge density cutoff     =     311.1111  Ry
     scf convergence threshold =      1.0E-06
     mixing beta               =       0.7000
     number of iterations used =            8  plain     mixing
     Exchange-correlation= SLA  PW   PBX  PBC
                           (   1   4   3   4   0   0   0)

     celldm(1)=  10.682943  celldm(2)=   0.000000  celldm(3)=   0.000000
     celldm(4)=   0.000000  celldm(5)=   0.000000  celldm(6)=   0.000000

     crystal axes: (cart. coord. in units of alat)
               a(1) = (   0.500000   0.500000   0.000000 )  
               a(2) = (   0.500000   0.000000   0.500000 )  
               a(3) = (   0.000000   0.500000   0.500000 )  

     reciprocal axes: (cart. coord. in units 2 pi/alat)
               b(1) = (  1.000000  1.000000 -1.000000 )  
               b(2) = (  1.000000 -1.000000  1.000000 )  
               b(3) = ( -1.000000  1.000000  1.000000 )  


     PseudoPot. # 1 for Ga read from file:
     /home/nico-sachs/source/q-e/SSSP_1.3.0_PBE_efficiency/Ga.pbe-dn-kjpaw_psl.1.0.0.UPF
     MD5 check sum: a27b4342b1af7e5f338de752e9ed7044
     Pseudo is Projector augmented-wave + core cor, Zval = 13.0
     Generated using "atomic" code by A. Dal Corso  v.5.1
     Shape of augmentation charge: PSQ
     Using radial grid of 1205 points,  6 beta functions with: 
                l(1) =   0
                l(2) =   0
                l(3) =   1
                l(4) =   1
                l(5) =   2
                l(6) =   2
     Q(r) pseudized with 0 coefficients 


     PseudoPot. # 2 for Al read from file:
     /home/nico-sachs/source/q-e/SSSP_1.3.0_PBE_efficiency/Al.pbe-n-kjpaw_psl.1.0.0.UPF
     MD5 check sum: cfc449ca30b5f3223ec38ddd88ac046d
     Pseudo is Projector augmented-wave + core cor, Zval =  3.0
     Generated using "atomic" code by A. Dal Corso  v.5.1
     Shape of augmentation charge: PSQ
     Using radial grid of 1135 points,  6 beta functions with: 
                l(1) =   0
                l(2) =   0
                l(3) =   1
                l(4) =   1
                l(5) =   2
                l(6) =   2
     Q(r) pseudized with 0 coefficients 


     atomic species   valence    mass     pseudopotential
     Ga               13.00    69.72300     Ga( 1.00)
     As                3.00    74.92100     Al( 1.00)

     24 Sym. Ops. (no inversion) found



   Cartesian axes

     site n.     atom                  positions (alat units)
         1        As     tau(   1) = (   0.2500000   0.2500000   0.2500000  )
         2        Ga     tau(   2) = (   0.0000000   0.0000000   0.0000000  )

     number of k points=    60  Marzari-Vanderbilt smearing, width (Ry)=  0.0500
                       cart. coord. in units 2pi/alat
        k(    1) = (   0.0625000   0.0625000   0.0625000), wk =   0.0078125
        k(    2) = (   0.0625000   0.0625000   0.1875000), wk =   0.0234375
        k(    3) = (   0.0625000   0.0625000   0.3125000), wk =   0.0234375
        k(    4) = (   0.0625000   0.0625000   0.4375000), wk =   0.0234375
        k(    5) = (   0.0625000   0.0625000   0.5625000), wk =   0.0234375
        k(    6) = (   0.0625000   0.0625000   0.6875000), wk =   0.0234375
        k(    7) = (   0.0625000   0.0625000   0.8125000), wk =   0.0234375
        k(    8) = (   0.0625000   0.0625000   0.9375000), wk =   0.0234375
        k(    9) = (   0.0625000   0.1875000   0.1875000), wk =   0.0234375
        k(   10) = (   0.0625000   0.1875000   0.3125000), wk =   0.0468750
        k(   11) = (   0.0625000   0.1875000   0.4375000), wk =   0.0468750
        k(   12) = (   0.0625000   0.1875000   0.5625000), wk =   0.0468750
        k(   13) = (   0.0625000   0.1875000   0.6875000), wk =   0.0468750
        k(   14) = (   0.0625000   0.1875000   0.8125000), wk =   0.0468750
        k(   15) = (   0.0625000   0.1875000   0.9375000), wk =   0.0468750
        k(   16) = (   0.0625000   0.3125000   0.3125000), wk =   0.0234375
        k(   17) = (   0.0625000   0.3125000   0.4375000), wk =   0.0468750
        k(   18) = (   0.0625000   0.3125000   0.5625000), wk =   0.0468750
        k(   19) = (   0.0625000   0.3125000   0.6875000), wk =   0.0468750
        k(   20) = (   0.0625000   0.3125000   0.8125000), wk =   0.0468750
        k(   21) = (   0.0625000   0.3125000   0.9375000), wk =   0.0468750
        k(   22) = (   0.0625000   0.4375000   0.4375000), wk =   0.0234375
        k(   23) = (   0.0625000   0.4375000   0.5625000), wk =   0.0468750
        k(   24) = (   0.0625000   0.4375000   0.6875000), wk =   0.0468750
        k(   25) = (   0.0625000   0.4375000   0.8125000), wk =   0.0468750
        k(   26) = (   0.0625000   0.4375000   0.9375000), wk =   0.0468750
        k(   27) = (   0.0625000   0.5625000   0.5625000), wk =   0.0234375
        k(   28) = (   0.0625000   0.5625000   0.6875000), wk =   0.0468750
        k(   29) = (   0.0625000   0.5625000   0.8125000), wk =   0.0468750
        k(   30) = (   0.0625000   0.6875000   0.6875000), wk =   0.0234375
        k(   31) = (   0.0625000   0.6875000   0.8125000), wk =   0.0468750
        k(   32) = (   0.0625000   0.8125000   0.8125000), wk =   0.0234375
        k(   33) = (   0.1875000   0.1875000   0.1875000), wk =   0.0078125
        k(   34) = (   0.1875000   0.1875000   0.3125000), wk =   0.0234375
        k(   35) = (   0.1875000   0.1875000   0.4375000), wk =   0.0234375
        k(   36) = (   0.1875000   0.1875000   0.5625000), wk =   0.0234375
        k(   37) = (   0.1875000   0.1875000   0.6875000), wk =   0.0234375
        k(   38) = (   0.1875000   0.1875000   0.8125000), wk =   0.0234375
        k(   39) = (   0.1875000   0.3125000   0.3125000), wk =   0.0234375
        k(   40) = (   0.1875000   0.3125000   0.4375000), wk =   0.0468750
        k(   41) = (   0.1875000   0.3125000   0.5625000), wk =   0.0468750
        k(   42) = (   0.1875000   0.3125000   0.6875000), wk =   0.0468750
        k(   43) = (   0.1875000   0.3125000   0.8125000), wk =   0.0468750
        k(   44) = (   0.1875000   0.4375000   0.4375000), wk =   0.0234375
        k(   45) = (   0.1875000   0.4375000   0.5625000), wk =   0.0468750
        k(   46) = (   0.1875000   0.4375000   0.6875000), wk =   0.0468750
        k(   47) = (   0.1875000   0.4375000   0.8125000), wk =   0.0468750
        k(   48) = (   0.1875000   0.5625000   0.5625000), wk =   0.0234375
        k(   49) = (   0.1875000   0.5625000   0.6875000), wk =   0.0468750
        k(   50) = (   0.1875000   0.6875000   0.6875000), wk =   0.0234375
        k(   51) = (   0.3125000   0.3125000   0.3125000), wk =   0.0078125
        k(   52) = (   0.3125000   0.3125000   0.4375000), wk =   0.0234375
        k(   53) = (   0.3125000   0.3125000   0.5625000), wk =   0.0234375
        k(   54) = (   0.3125000   0.3125000   0.6875000), wk =   0.0234375
        k(   55) = (   0.3125000   0.4375000   0.4375000), wk =   0.0234375
        k(   56) = (   0.3125000   0.4375000   0.5625000), wk =   0.0468750
        k(   57) = (   0.3125000   0.4375000   0.6875000), wk =   0.0468750
        k(   58) = (   0.3125000   0.5625000   0.5625000), wk =   0.0234375
        k(   59) = (   0.4375000   0.4375000   0.4375000), wk =   0.0078125
        k(   60) = (   0.4375000   0.4375000   0.5625000), wk =   0.0234375

     Dense  grid:    28325 G-vectors     FFT dimensions: (  45,  45,  45)

     Estimated max dynamical RAM per process >     149.98 MB

     Initial potential from superposition of free atoms

     starting charge      15.9948, renormalised to      16.0000
     Starting wfcs are   13 randomized atomic wfcs
     Checking if some PAW data can be deallocated... 

     total cpu time spent up to now is        3.2 secs

     Self-consistent Calculation

     iteration #  1     ecut=    77.78 Ry     beta= 0.70
     CG style diagonalization
     ethr =  1.00E-02,  avg # of iterations =  3.0

     Threshold (ethr) on eigenvalues was too large:
     Diagonalizing with lowered threshold

     CG style diagonalization
     c_bands:  1 eigenvalues not converged
     c_bands:  1 eigenvalues not converged
     c_bands:  1 eigenvalues not converged
     c_bands:  2 eigenvalues not converged
     c_bands:  1 eigenvalues not converged
     c_bands:  1 eigenvalues not converged
     c_bands:  1 eigenvalues not converged
     ethr =  4.72E-05,  avg # of iterations =  8.1

     total cpu time spent up to now is       27.6 secs

     total energy              =    -317.34929503 Ry
     estimated scf accuracy    <       0.01000939 Ry

     iteration #  2     ecut=    77.78 Ry     beta= 0.70
     CG style diagonalization
     ethr =  6.26E-05,  avg # of iterations =  3.0

     total cpu time spent up to now is       34.5 secs

     total energy              =    -317.34968652 Ry
     estimated scf accuracy    <       0.00083974 Ry

     iteration #  3     ecut=    77.78 Ry     beta= 0.70
     CG style diagonalization
     c_bands:  1 eigenvalues not converged
     c_bands:  1 eigenvalues not converged
     c_bands:  1 eigenvalues not converged
     c_bands:  1 eigenvalues not converged
     c_bands:  1 eigenvalues not converged
     c_bands:  1 eigenvalues not converged
     ethr =  5.25E-06,  avg # of iterations =  5.2

     total cpu time spent up to now is       45.7 secs

     total energy              =    -317.34995953 Ry
     estimated scf accuracy    <       0.00000876 Ry

     iteration #  4     ecut=    77.78 Ry     beta= 0.70
     CG style diagonalization
     c_bands:  1 eigenvalues not converged
     c_bands:  1 eigenvalues not converged
     c_bands:  1 eigenvalues not converged
     c_bands:  1 eigenvalues not converged
     c_bands:  2 eigenvalues not converged
     c_bands:  1 eigenvalues not converged
     c_bands:  1 eigenvalues not converged
     c_bands:  1 eigenvalues not converged
     c_bands:  1 eigenvalues not converged
     c_bands:  1 eigenvalues not converged
     c_bands:  1 eigenvalues not converged
     c_bands:  1 eigenvalues not converged
     c_bands:  1 eigenvalues not converged
     c_bands:  1 eigenvalues not converged
     c_bands:  1 eigenvalues not converged
     ethr =  5.48E-08,  avg # of iterations = 10.7

     total cpu time spent up to now is       67.4 secs

     total energy              =    -317.35020857 Ry
     estimated scf accuracy    <       0.00021240 Ry

     iteration #  5     ecut=    77.78 Ry     beta= 0.70
     CG style diagonalization
     ethr =  5.48E-08,  avg # of iterations =  3.4

     total cpu time spent up to now is       75.1 secs

     total energy              =    -317.35024045 Ry
     estimated scf accuracy    <       0.00027754 Ry

     iteration #  6     ecut=    77.78 Ry     beta= 0.70
     CG style diagonalization
     ethr =  5.48E-08,  avg # of iterations =  3.8

     total cpu time spent up to now is       83.5 secs

     total energy              =    -317.35007630 Ry
     estimated scf accuracy    <       0.00041790 Ry

     iteration #  7     ecut=    77.78 Ry     beta= 0.70
     CG style diagonalization
     ethr =  5.48E-08,  avg # of iterations =  7.5

     total cpu time spent up to now is       99.1 secs

     total energy              =    -317.35016490 Ry
     estimated scf accuracy    <       0.00010254 Ry

     iteration #  8     ecut=    77.78 Ry     beta= 0.70
     CG style diagonalization
     ethr =  5.48E-08,  avg # of iterations =  3.3

     total cpu time spent up to now is      106.6 secs

     total energy              =    -317.35014179 Ry
     estimated scf accuracy    <       0.00009283 Ry

     iteration #  9     ecut=    77.78 Ry     beta= 0.70
     CG style diagonalization
     ethr =  5.48E-08,  avg # of iterations =  3.5

     total cpu time spent up to now is      114.4 secs

     total energy              =    -317.35014131 Ry
     estimated scf accuracy    <       0.00001739 Ry

     iteration # 10     ecut=    77.78 Ry     beta= 0.70
     CG style diagonalization
     ethr =  5.48E-08,  avg # of iterations =  5.8

     total cpu time spent up to now is      126.7 secs

     total energy              =    -317.35014391 Ry
     estimated scf accuracy    <       0.00011343 Ry

     iteration # 11     ecut=    77.78 Ry     beta= 0.70
     CG style diagonalization
     ethr =  5.48E-08,  avg # of iterations =  3.7

     total cpu time spent up to now is      134.9 secs

     total energy              =    -317.35014429 Ry
     estimated scf accuracy    <       0.00002989 Ry

     iteration # 12     ecut=    77.78 Ry     beta= 0.70
     CG style diagonalization
     ethr =  5.48E-08,  avg # of iterations =  3.0

     total cpu time spent up to now is      141.9 secs

     total energy              =    -317.35014354 Ry
     estimated scf accuracy    <       0.00001736 Ry

     iteration # 13     ecut=    77.78 Ry     beta= 0.70
     CG style diagonalization
     ethr =  5.48E-08,  avg # of iterations =  3.0

     total cpu time spent up to now is      148.7 secs

     total energy              =    -317.35014391 Ry
     estimated scf accuracy    <       0.00001256 Ry

     iteration # 14     ecut=    77.78 Ry     beta= 0.70
     CG style diagonalization
     ethr =  5.48E-08,  avg # of iterations =  3.0

     total cpu time spent up to now is      155.6 secs

     total energy              =    -317.35014362 Ry
     estimated scf accuracy    <       0.00001200 Ry

     iteration # 15     ecut=    77.78 Ry     beta= 0.70
     CG style diagonalization
     ethr =  5.48E-08,  avg # of iterations =  3.0

     total cpu time spent up to now is      162.5 secs

     total energy              =    -317.35014355 Ry
     estimated scf accuracy    <       0.00001006 Ry

     iteration # 16     ecut=    77.78 Ry     beta= 0.70
     CG style diagonalization
     ethr =  5.48E-08,  avg # of iterations =  3.0

     total cpu time spent up to now is      169.4 secs

     total energy              =    -317.35014041 Ry
     estimated scf accuracy    <       0.00000896 Ry

     iteration # 17     ecut=    77.78 Ry     beta= 0.70
     CG style diagonalization
     ethr =  5.48E-08,  avg # of iterations =  3.4

     total cpu time spent up to now is      177.0 secs

     End of self-consistent calculation

          k = 0.0625 0.0625 0.0625 (  3524 PWs)   bands (ev):

    -9.0676  -9.0668  -9.0668  -9.0053  -9.0053  -3.8340   7.5830   8.0745
     8.0746  10.4591  10.5101  10.5102

          k = 0.0625 0.0625 0.1875 (  3548 PWs)   bands (ev):

    -9.0692  -9.0645  -9.0643  -9.0065  -9.0042  -3.6999   6.8080   7.5508
     7.7854  10.1399  10.9029  11.1811

          k = 0.0625 0.0625 0.3125 (  3551 PWs)   bands (ev):

    -9.0725  -9.0598  -9.0596  -9.0088  -9.0021  -3.4328   5.9466   6.9095
     7.0645   9.6147  11.6945  12.1048

          k = 0.0625 0.0625 0.4375 (  3547 PWs)   bands (ev):

    -9.0769  -9.0536  -9.0533  -9.0121  -8.9994  -3.0353   5.0328   6.3078
     6.3120   9.0869  10.9762  13.0975

          k = 0.0625 0.0625 0.5625 (  3533 PWs)   bands (ev):

    -9.0815  -9.0468  -9.0465  -9.0159  -8.9965  -2.5127   4.0495   5.6704
     5.8088   8.6298  10.0561  14.0003

          k = 0.0625 0.0625 0.6875 (  3523 PWs)   bands (ev):

    -9.0857  -9.0404  -9.0400  -9.0198  -8.9939  -1.8748   3.0170   5.1961
     5.4201   8.2742   9.3573  15.1050

          k = 0.0625 0.0625 0.8125 (  3518 PWs)   bands (ev):

    -9.0889  -9.0354  -9.0350  -9.0229  -8.9920  -1.1464   1.9973   4.8850
     5.1563   8.0340   8.8960  16.1309

          k = 0.0625 0.0625 0.9375 (  3523 PWs)   bands (ev):

    -9.0906  -9.0327  -9.0322  -9.0246  -8.9909  -0.4389   1.1351   4.7311
     5.0232   7.9131   8.6678  17.0430

          k = 0.0625 0.1875 0.1875 (  3550 PWs)   bands (ev):

    -9.0688  -9.0640  -9.0625  -9.0063  -9.0042  -3.5667   6.0115   7.1084
     7.9750  10.5690  10.7111  11.1114

          k = 0.0625 0.1875 0.3125 (  3539 PWs)   bands (ev):

    -9.0710  -9.0602  -9.0589  -9.0079  -9.0025  -3.3018   5.2000   6.4581
     7.5463  10.2579  11.1694  11.8303

          k = 0.0625 0.1875 0.4375 (  3540 PWs)   bands (ev):

    -9.0747  -9.0546  -9.0535  -9.0107  -8.9999  -2.9083   4.4173   5.8289
     6.7753   9.7415  11.4611  12.0428

          k = 0.0625 0.1875 0.5625 (  3531 PWs)   bands (ev):

    -9.0789  -9.0489  -9.0468  -9.0142  -8.9973  -2.3925   3.6380   5.2625
     5.9992   9.2633  10.6506  12.8852

          k = 0.0625 0.1875 0.6875 (  3526 PWs)   bands (ev):

    -9.0827  -9.0435  -9.0403  -9.0178  -8.9950  -1.7665   2.8163   4.7741
     5.3988   8.8745  10.0447  13.7743

          k = 0.0625 0.1875 0.8125 (  3517 PWs)   bands (ev):

    -9.0856  -9.0391  -9.0353  -9.0208  -8.9934  -1.0597   1.9531   4.4102
     5.0278   8.6026   9.6575  14.7038

          k = 0.0625 0.1875 0.9375 (  3519 PWs)   bands (ev):

    -9.0871  -9.0365  -9.0325  -9.0225  -8.9926  -0.3931   1.1935   4.2208
     4.8547   8.4626   9.4701  15.6494

          k = 0.0625 0.3125 0.3125 (  3541 PWs)   bands (ev):

    -9.0700  -9.0589  -9.0573  -9.0072  -9.0026  -3.0418   4.4379   5.8195
     7.6459  10.7750  11.1388  11.4965

          k = 0.0625 0.3125 0.4375 (  3535 PWs)   bands (ev):

    -9.0717  -9.0553  -9.0537  -9.0085  -9.0011  -2.6573   3.7320   5.2124
     7.1116  10.7115  11.0521  12.2753

          k = 0.0625 0.3125 0.5625 (  3531 PWs)   bands (ev):

    -9.0746  -9.0520  -9.0472  -9.0113  -8.9989  -2.1571   3.0835   4.6899
     6.2584  10.2744  11.4384  11.7722

          k = 0.0625 0.3125 0.6875 (  3526 PWs)   bands (ev):

    -9.0775  -9.0485  -9.0407  -9.0145  -8.9972  -1.5584   2.4637   4.2691
     5.4162   9.8945  11.1040  12.2985

          k = 0.0625 0.3125 0.8125 (  3523 PWs)   bands (ev):

    -9.0798  -9.0453  -9.0355  -9.0173  -8.9960  -0.9011   1.8375   3.9575
     4.7908   9.6288  10.7856  13.1188

          k = 0.0625 0.3125 0.9375 (  3516 PWs)   bands (ev):

    -9.0810  -9.0433  -9.0327  -9.0190  -8.9955  -0.3236   1.2826   3.7804
     4.4799   9.4933  10.6269  14.0266

          k = 0.0625 0.4375 0.4375 (  3524 PWs)   bands (ev):

    -9.0700  -9.0544  -9.0524  -9.0067  -9.0024  -2.2893   3.0968   4.6307
     7.0496  10.3328  11.8431  12.1025

          k = 0.0625 0.4375 0.5625 (  3531 PWs)   bands (ev):

    -9.0709  -9.0536  -9.0472  -9.0078  -9.0017  -1.8181   2.5403   4.1462
     6.4489  10.2736  11.5661  12.9157

          k = 0.0625 0.4375 0.6875 (  3526 PWs)   bands (ev):

    -9.0725  -9.0524  -9.0409  -9.0110  -9.0000  -1.2704   2.0633   3.7901
     5.5738  10.6273  11.3004  12.5292

          k = 0.0625 0.4375 0.8125 (  3522 PWs)   bands (ev):

    -9.0740  -9.0510  -9.0357  -9.0141  -8.9987  -0.7049   1.6549   3.5866
     4.7512  10.8102  11.5163  12.2997

          k = 0.0625 0.4375 0.9375 (  3522 PWs)   bands (ev):

    -9.0749  -9.0499  -9.0328  -9.0160  -8.9981  -0.2704   1.3508   3.5403
     4.2119  10.7478  11.8540  12.5865

          k = 0.0625 0.5625 0.5625 (  3534 PWs)   bands (ev):

    -9.0706  -9.0521  -9.0455  -9.0061  -9.0038  -1.3982   2.0727   3.7088
     6.3495   9.5388  12.8437  13.0707

          k = 0.0625 0.5625 0.6875 (  3532 PWs)   bands (ev):

    -9.0723  -9.0508  -9.0408  -9.0101  -9.0012  -0.9411   1.7107   3.4285
     5.7649   9.5143  12.6517  13.9148

          k = 0.0625 0.5625 0.8125 (  3528 PWs)   bands (ev):

    -9.0740  -9.0503  -9.0357  -9.0138  -8.9992  -0.5264   1.4688   3.3592
     4.9400  10.0161  12.3790  13.1851

          k = 0.0625 0.6875 0.6875 (  3525 PWs)   bands (ev):

    -9.0758  -9.0461  -9.0394  -9.0132  -8.9991  -0.6341   1.4626   3.2637
     5.7203   8.8341  12.9211  14.1103

          k = 0.0625 0.6875 0.8125 (  3527 PWs)   bands (ev):

    -9.0792  -9.0439  -9.0356  -9.0168  -8.9968  -0.4200   1.3310   3.3726
     5.2090   8.9095  11.6954  14.1096

          k = 0.0625 0.8125 0.8125 (  3511 PWs)   bands (ev):

    -9.0843  -9.0382  -9.0347  -9.0203  -8.9942  -0.3900   1.2415   3.6779
     5.2621   8.3211  10.4686  15.5825

          k = 0.1875 0.1875 0.1875 (  3557 PWs)   bands (ev):

    -9.0688  -9.0621  -9.0621  -9.0050  -9.0050  -3.4347   5.2291   7.5702
     7.5702  10.1123  11.1326  11.1327

          k = 0.1875 0.1875 0.3125 (  3546 PWs)   bands (ev):

    -9.0704  -9.0597  -9.0586  -9.0068  -9.0028  -3.1725   4.4467   7.0190
     7.2995  10.2235  10.9201  11.7248

          k = 0.1875 0.1875 0.4375 (  3534 PWs)   bands (ev):

    -9.0734  -9.0553  -9.0537  -9.0093  -9.0002  -2.7840   3.7338   6.4773
     6.4902   9.8689  11.5829  12.3712

          k = 0.1875 0.1875 0.5625 (  3521 PWs)   bands (ev):

    -9.0770  -9.0501  -9.0479  -9.0125  -8.9977  -2.2773   3.0877   5.5481
     6.0082   9.3029  11.4568  12.6397

          k = 0.1875 0.1875 0.6875 (  3531 PWs)   bands (ev):

    -9.0803  -9.0449  -9.0422  -9.0158  -8.9958  -1.6677   2.4705   4.6699
     5.6407   8.8221  10.9506  13.8372

          k = 0.1875 0.1875 0.8125 (  3513 PWs)   bands (ev):

    -9.0829  -9.0406  -9.0374  -9.0186  -8.9946  -0.9929   1.8299   4.0129
     5.3894   8.4893  10.6267  14.6937

          k = 0.1875 0.3125 0.3125 (  3545 PWs)   bands (ev):

    -9.0703  -9.0582  -9.0572  -9.0058  -9.0028  -2.9164   3.6918   6.5998
     7.4531  10.1513  11.0917  11.4162

          k = 0.1875 0.3125 0.4375 (  3532 PWs)   bands (ev):

    -9.0717  -9.0555  -9.0539  -9.0071  -9.0010  -2.5396   3.0242   6.0113
     7.0014  10.2877  10.9594  11.8818

          k = 0.1875 0.3125 0.5625 (  3533 PWs)   bands (ev):

    -9.0739  -9.0524  -9.0486  -9.0096  -8.9990  -2.0540   2.4605   5.3624
     6.2803   9.8455  11.5117  12.6024

          k = 0.1875 0.3125 0.6875 (  3529 PWs)   bands (ev):

    -9.0763  -9.0489  -9.0431  -9.0125  -8.9976  -1.4840   1.9973   4.5974
     5.7065   9.3876  12.0027  12.4703

          k = 0.1875 0.3125 0.8125 (  3525 PWs)   bands (ev):

    -9.0782  -9.0458  -9.0383  -9.0152  -8.9969  -0.8866   1.6164   3.8466
     5.3668   9.0694  11.8244  13.2179

          k = 0.1875 0.4375 0.4375 (  3534 PWs)   bands (ev):

    -9.0708  -9.0543  -9.0531  -9.0052  -9.0020  -2.1850   2.4065   5.4822
     7.0369  10.2820  11.3380  11.3804

          k = 0.1875 0.4375 0.5625 (  3536 PWs)   bands (ev):

    -9.0714  -9.0536  -9.0488  -9.0064  -9.0012  -1.7409   1.9171   4.9574
     6.5064  10.3497  10.8878  12.4599

          k = 0.1875 0.4375 0.6875 (  3534 PWs)   bands (ev):

    -9.0725  -9.0525  -9.0434  -9.0092  -9.0000  -1.2500   1.5848   4.4238
     5.7665  10.3903  10.9343  13.5215

          k = 0.1875 0.4375 0.8125 (  3540 PWs)   bands (ev):

    -9.0734  -9.0512  -9.0386  -9.0120  -8.9993  -0.8000   1.4422   3.8398
     5.2020  10.1490  11.6103  13.3032

          k = 0.1875 0.5625 0.5625 (  3535 PWs)   bands (ev):

    -9.0711  -9.0525  -9.0474  -9.0051  -9.0027  -1.3761   1.5274   4.5358
     6.4251   9.6752  12.1097  12.1464

          k = 0.1875 0.5625 0.6875 (  3534 PWs)   bands (ev):

    -9.0723  -9.0516  -9.0432  -9.0086  -9.0007  -1.0321   1.3560   4.1608
     5.8938   9.6622  11.8275  13.4943

          k = 0.1875 0.6875 0.6875 (  3533 PWs)   bands (ev):

    -9.0752  -9.0477  -9.0419  -9.0117  -8.9987  -0.9082   1.3852   3.9339
     5.8323   9.0025  12.9200  13.2936

          k = 0.3125 0.3125 0.3125 (  3542 PWs)   bands (ev):

    -9.0708  -9.0567  -9.0567  -9.0035  -9.0035  -2.6697   2.9520   7.1206
     7.1206   9.7040  11.1748  11.1750

          k = 0.3125 0.3125 0.4375 (  3532 PWs)   bands (ev):

    -9.0717  -9.0554  -9.0540  -9.0049  -9.0011  -2.3113   2.3194   6.7320
     6.7912   9.9232  10.8317  11.4519

          k = 0.3125 0.3125 0.5625 (  3529 PWs)   bands (ev):

    -9.0729  -9.0532  -9.0502  -9.0069  -8.9994  -1.8615   1.8255   5.9048
     6.3590   9.7739  11.2995  11.9122

          k = 0.3125 0.3125 0.6875 (  3536 PWs)   bands (ev):

    -9.0742  -9.0504  -9.0459  -9.0094  -8.9986  -1.3637   1.5004   4.8868
     6.0501   9.3321  12.2524  12.5333

          k = 0.3125 0.4375 0.4375 (  3535 PWs)   bands (ev):

    -9.0719  -9.0540  -9.0538  -9.0031  -9.0015  -1.9903   1.7397   6.3898
     6.9895   9.8666  11.0046  11.0169

          k = 0.3125 0.4375 0.5625 (  3531 PWs)   bands (ev):

    -9.0721  -9.0536  -9.0509  -9.0041  -9.0007  -1.6156   1.3405   5.8598
     6.6015  10.1505  10.6456  11.6258

          k = 0.3125 0.4375 0.6875 (  3540 PWs)   bands (ev):

    -9.0722  -9.0527  -9.0470  -9.0063  -9.0003  -1.2638   1.1921   5.0707
     6.1639   9.9425  11.0732  12.5188

          k = 0.3125 0.5625 0.5625 (  3527 PWs)   bands (ev):

    -9.0719  -9.0531  -9.0501  -9.0035  -9.0014  -1.3876   1.1016   5.5398
     6.5619   9.8868  11.1797  11.5208

          k = 0.4375 0.4375 0.4375 (  3531 PWs)   bands (ev):

    -9.0726  -9.0538  -9.0538  -9.0015  -9.0015  -1.7413   1.2400   6.8846
     6.8847   9.4901  10.9117  10.9119

          k = 0.4375 0.4375 0.5625 (  3537 PWs)   bands (ev):

    -9.0725  -9.0535  -9.0525  -9.0022  -9.0008  -1.5109   0.9987   6.4660
     6.7297   9.7860  10.7543  11.0900

     the Fermi energy is     5.5190 ev

!    total energy              =    -317.35014222 Ry
     total all-electron energy =     -4373.657584 Ry
     estimated scf accuracy    <       0.00000007 Ry
     smearing contrib. (-TS)   =      -0.00133634 Ry
     internal energy E=F+TS    =    -317.34880588 Ry

     The total energy is F=E-TS. E is the sum of the following terms:
     one-electron contribution =    -124.50589552 Ry
     hartree contribution      =      75.74204291 Ry
     xc contribution           =     -40.61444515 Ry
     ewald contribution        =     -82.24853881 Ry
     one-center paw contrib.   =    -145.72196931 Ry

     convergence has been achieved in  17 iterations

     Forces acting on atoms (cartesian axes, Ry/au):

     atom    1 type  2   force =     0.00000000    0.00000000    0.00000000
     atom    2 type  1   force =     0.00000000    0.00000000    0.00000000

     Total force =     0.000000     Total SCF correction =     0.000000


     Computing stress (Cartesian axis) and pressure

          total   stress  (Ry/bohr**3)                   (kbar)     P=       70.94
   0.00048222  -0.00000000  -0.00000000           70.94       -0.00       -0.00
  -0.00000000   0.00048222  -0.00000000           -0.00       70.94       -0.00
  -0.00000000  -0.00000000   0.00048222           -0.00       -0.00       70.94


     Writing all to output data dir /home/nico-sachs/source/q-e/tempdir/al.save/ :
     XML data file, charge density, pseudopotentials, collected wavefunctions

     init_run     :      2.87s CPU      2.98s WALL (       1 calls)
     electrons    :    170.67s CPU    173.88s WALL (       1 calls)
     forces       :      0.84s CPU      0.90s WALL (       1 calls)
     stress       :      3.86s CPU      4.03s WALL (       1 calls)

     Called by init_run:
     wfcinit      :      1.80s CPU      1.81s WALL (       1 calls)
     potinit      :      0.36s CPU      0.41s WALL (       1 calls)
     hinit0       :      0.56s CPU      0.57s WALL (       1 calls)

     Called by electrons:
     c_bands      :    147.93s CPU    148.87s WALL (      18 calls)
     sum_band     :     14.68s CPU     15.77s WALL (      18 calls)
     v_of_rho     :      0.51s CPU      0.51s WALL (      18 calls)
     newd         :      2.17s CPU      3.04s WALL (      18 calls)
     PAW_pot      :      5.73s CPU      6.12s WALL (      18 calls)
     mix_rho      :      0.07s CPU      0.07s WALL (      18 calls)

     Called by c_bands:
     init_us_2    :      2.27s CPU      2.29s WALL (    2340 calls)
     ccgdiagg     :    122.14s CPU    123.01s WALL (    1080 calls)
     wfcrot       :     26.18s CPU     26.25s WALL (    1020 calls)

     Called by *cgdiagg:
     h_psi        :    103.70s CPU    104.28s WALL (   46690 calls)
     s_psi        :     21.27s CPU     21.44s WALL (   92360 calls)

     Called by h_psi:
     h_psi:calbec :     15.31s CPU     15.37s WALL (   46690 calls)
     vloc_psi     :     75.94s CPU     76.42s WALL (   46690 calls)
                                        0.00s GPU  (   46690 calls)
     add_vuspsi   :     12.00s CPU     12.05s WALL (   46690 calls)
     hs_1psi      :     92.40s CPU     92.99s WALL (   45670 calls)
     s_1psi       :     22.27s CPU     22.48s WALL (   45670 calls)

     General routines
     calbec       :     32.67s CPU     32.86s WALL (   94460 calls)
     fft          :      0.31s CPU      0.31s WALL (     224 calls)
     ffts         :      0.02s CPU      0.02s WALL (      18 calls)
     fftw         :     75.37s CPU     75.80s WALL (  128900 calls)

     Parallel routines

     PWSCF        :   2m58.42s CPU   3m 2.02s WALL


   This run was terminated on:  16: 7:57  26Jan2026            

=------------------------------------------------------------------------------=
   JOB DONE.
=------------------------------------------------------------------------------=
