
     Program PWSCF v.7.5 starts on 26Jan2026 at 15:42:11 

     This program is part of the open-source Quantum ESPRESSO suite
     for quantum simulation of materials; please cite
         "P. Giannozzi et al., J. Phys.:Condens. Matter 21 395502 (2009);
         "P. Giannozzi et al., J. Phys.:Condens. Matter 29 465901 (2017);
         "P. Giannozzi et al., J. Chem. Phys. 152 154105 (2020);
          URL http://www.quantum-espresso.org", 
     in publications or presentations arising from this work. More details at
     http://www.quantum-espresso.org/quote

     Parallel version (MPI), running on     1 processors

     MPI processes distributed on     1 nodes
     25155 MiB available memory on the printing compute node when the environment starts

     Waiting for input...
     Reading input from standard input

     Current dimensions of program PWSCF are:
     Max number of different atomic species (ntypx) = 10
     Max number of k-points (npk) =  40000
     Max angular momentum in pseudopotentials (lmaxx) =  4
     file Ga.pbe-dn-kjpaw_psl.1.0.0.UPF: wavefunction(s)  4S renormalized
     file Al.pbe-n-kjpaw_psl.1.0.0.UPF: wavefunction(s)  3S 3P renormalized
     Message from routine volume:
     axis vectors are left-handed
     Message from routine setup:
     using ibrav=0 with symmetry is DISCOURAGED, use correct ibrav instead

     Subspace diagonalization in iterative solution of the eigenvalue problem:
     a serial algorithm will be used


     G-vector sticks info
     --------------------
     sticks:   dense  smooth     PW     G-vecs:    dense   smooth      PW
     Sum        1663    1663    475                45239    45239    6855

     Using Slab Decomposition



     bravais-lattice index     =            0
     lattice parameter (alat)  =      10.6829  a.u.
     unit-cell volume          =     304.7984 (a.u.)^3
     number of atoms/cell      =            2
     number of atomic types    =            2
     number of electrons       =        16.00
     number of Kohn-Sham states=           12
     kinetic-energy cutoff     =     106.6667  Ry
     charge density cutoff     =     426.6667  Ry
     scf convergence threshold =      1.0E-06
     mixing beta               =       0.7000
     number of iterations used =            8  plain     mixing
     Exchange-correlation= SLA  PW   PBX  PBC
                           (   1   4   3   4   0   0   0)

     celldm(1)=  10.682943  celldm(2)=   0.000000  celldm(3)=   0.000000
     celldm(4)=   0.000000  celldm(5)=   0.000000  celldm(6)=   0.000000

     crystal axes: (cart. coord. in units of alat)
               a(1) = (   0.500000   0.500000   0.000000 )  
               a(2) = (   0.500000   0.000000   0.500000 )  
               a(3) = (   0.000000   0.500000   0.500000 )  

     reciprocal axes: (cart. coord. in units 2 pi/alat)
               b(1) = (  1.000000  1.000000 -1.000000 )  
               b(2) = (  1.000000 -1.000000  1.000000 )  
               b(3) = ( -1.000000  1.000000  1.000000 )  


     PseudoPot. # 1 for Ga read from file:
     /home/nico-sachs/source/q-e/SSSP_1.3.0_PBE_efficiency/Ga.pbe-dn-kjpaw_psl.1.0.0.UPF
     MD5 check sum: a27b4342b1af7e5f338de752e9ed7044
     Pseudo is Projector augmented-wave + core cor, Zval = 13.0
     Generated using "atomic" code by A. Dal Corso  v.5.1
     Shape of augmentation charge: PSQ
     Using radial grid of 1205 points,  6 beta functions with: 
                l(1) =   0
                l(2) =   0
                l(3) =   1
                l(4) =   1
                l(5) =   2
                l(6) =   2
     Q(r) pseudized with 0 coefficients 


     PseudoPot. # 2 for Al read from file:
     /home/nico-sachs/source/q-e/SSSP_1.3.0_PBE_efficiency/Al.pbe-n-kjpaw_psl.1.0.0.UPF
     MD5 check sum: cfc449ca30b5f3223ec38ddd88ac046d
     Pseudo is Projector augmented-wave + core cor, Zval =  3.0
     Generated using "atomic" code by A. Dal Corso  v.5.1
     Shape of augmentation charge: PSQ
     Using radial grid of 1135 points,  6 beta functions with: 
                l(1) =   0
                l(2) =   0
                l(3) =   1
                l(4) =   1
                l(5) =   2
                l(6) =   2
     Q(r) pseudized with 0 coefficients 


     atomic species   valence    mass     pseudopotential
     Ga               13.00    69.72300     Ga( 1.00)
     As                3.00    74.92100     Al( 1.00)

     24 Sym. Ops. (no inversion) found



   Cartesian axes

     site n.     atom                  positions (alat units)
         1        As     tau(   1) = (   0.2500000   0.2500000   0.2500000  )
         2        Ga     tau(   2) = (   0.0000000   0.0000000   0.0000000  )

     number of k points=    60  Marzari-Vanderbilt smearing, width (Ry)=  0.0500
                       cart. coord. in units 2pi/alat
        k(    1) = (   0.0625000   0.0625000   0.0625000), wk =   0.0078125
        k(    2) = (   0.0625000   0.0625000   0.1875000), wk =   0.0234375
        k(    3) = (   0.0625000   0.0625000   0.3125000), wk =   0.0234375
        k(    4) = (   0.0625000   0.0625000   0.4375000), wk =   0.0234375
        k(    5) = (   0.0625000   0.0625000   0.5625000), wk =   0.0234375
        k(    6) = (   0.0625000   0.0625000   0.6875000), wk =   0.0234375
        k(    7) = (   0.0625000   0.0625000   0.8125000), wk =   0.0234375
        k(    8) = (   0.0625000   0.0625000   0.9375000), wk =   0.0234375
        k(    9) = (   0.0625000   0.1875000   0.1875000), wk =   0.0234375
        k(   10) = (   0.0625000   0.1875000   0.3125000), wk =   0.0468750
        k(   11) = (   0.0625000   0.1875000   0.4375000), wk =   0.0468750
        k(   12) = (   0.0625000   0.1875000   0.5625000), wk =   0.0468750
        k(   13) = (   0.0625000   0.1875000   0.6875000), wk =   0.0468750
        k(   14) = (   0.0625000   0.1875000   0.8125000), wk =   0.0468750
        k(   15) = (   0.0625000   0.1875000   0.9375000), wk =   0.0468750
        k(   16) = (   0.0625000   0.3125000   0.3125000), wk =   0.0234375
        k(   17) = (   0.0625000   0.3125000   0.4375000), wk =   0.0468750
        k(   18) = (   0.0625000   0.3125000   0.5625000), wk =   0.0468750
        k(   19) = (   0.0625000   0.3125000   0.6875000), wk =   0.0468750
        k(   20) = (   0.0625000   0.3125000   0.8125000), wk =   0.0468750
        k(   21) = (   0.0625000   0.3125000   0.9375000), wk =   0.0468750
        k(   22) = (   0.0625000   0.4375000   0.4375000), wk =   0.0234375
        k(   23) = (   0.0625000   0.4375000   0.5625000), wk =   0.0468750
        k(   24) = (   0.0625000   0.4375000   0.6875000), wk =   0.0468750
        k(   25) = (   0.0625000   0.4375000   0.8125000), wk =   0.0468750
        k(   26) = (   0.0625000   0.4375000   0.9375000), wk =   0.0468750
        k(   27) = (   0.0625000   0.5625000   0.5625000), wk =   0.0234375
        k(   28) = (   0.0625000   0.5625000   0.6875000), wk =   0.0468750
        k(   29) = (   0.0625000   0.5625000   0.8125000), wk =   0.0468750
        k(   30) = (   0.0625000   0.6875000   0.6875000), wk =   0.0234375
        k(   31) = (   0.0625000   0.6875000   0.8125000), wk =   0.0468750
        k(   32) = (   0.0625000   0.8125000   0.8125000), wk =   0.0234375
        k(   33) = (   0.1875000   0.1875000   0.1875000), wk =   0.0078125
        k(   34) = (   0.1875000   0.1875000   0.3125000), wk =   0.0234375
        k(   35) = (   0.1875000   0.1875000   0.4375000), wk =   0.0234375
        k(   36) = (   0.1875000   0.1875000   0.5625000), wk =   0.0234375
        k(   37) = (   0.1875000   0.1875000   0.6875000), wk =   0.0234375
        k(   38) = (   0.1875000   0.1875000   0.8125000), wk =   0.0234375
        k(   39) = (   0.1875000   0.3125000   0.3125000), wk =   0.0234375
        k(   40) = (   0.1875000   0.3125000   0.4375000), wk =   0.0468750
        k(   41) = (   0.1875000   0.3125000   0.5625000), wk =   0.0468750
        k(   42) = (   0.1875000   0.3125000   0.6875000), wk =   0.0468750
        k(   43) = (   0.1875000   0.3125000   0.8125000), wk =   0.0468750
        k(   44) = (   0.1875000   0.4375000   0.4375000), wk =   0.0234375
        k(   45) = (   0.1875000   0.4375000   0.5625000), wk =   0.0468750
        k(   46) = (   0.1875000   0.4375000   0.6875000), wk =   0.0468750
        k(   47) = (   0.1875000   0.4375000   0.8125000), wk =   0.0468750
        k(   48) = (   0.1875000   0.5625000   0.5625000), wk =   0.0234375
        k(   49) = (   0.1875000   0.5625000   0.6875000), wk =   0.0468750
        k(   50) = (   0.1875000   0.6875000   0.6875000), wk =   0.0234375
        k(   51) = (   0.3125000   0.3125000   0.3125000), wk =   0.0078125
        k(   52) = (   0.3125000   0.3125000   0.4375000), wk =   0.0234375
        k(   53) = (   0.3125000   0.3125000   0.5625000), wk =   0.0234375
        k(   54) = (   0.3125000   0.3125000   0.6875000), wk =   0.0234375
        k(   55) = (   0.3125000   0.4375000   0.4375000), wk =   0.0234375
        k(   56) = (   0.3125000   0.4375000   0.5625000), wk =   0.0468750
        k(   57) = (   0.3125000   0.4375000   0.6875000), wk =   0.0468750
        k(   58) = (   0.3125000   0.5625000   0.5625000), wk =   0.0234375
        k(   59) = (   0.4375000   0.4375000   0.4375000), wk =   0.0078125
        k(   60) = (   0.4375000   0.4375000   0.5625000), wk =   0.0234375

     Dense  grid:    45239 G-vectors     FFT dimensions: (  50,  50,  50)

     Estimated max dynamical RAM per process >     237.28 MB

     Initial potential from superposition of free atoms

     starting charge      15.9948, renormalised to      16.0000
     Starting wfcs are   13 randomized atomic wfcs
     Checking if some PAW data can be deallocated... 

     total cpu time spent up to now is        4.2 secs

     Self-consistent Calculation

     iteration #  1     ecut=   106.67 Ry     beta= 0.70
     CG style diagonalization
     ethr =  1.00E-02,  avg # of iterations =  3.1

     Threshold (ethr) on eigenvalues was too large:
     Diagonalizing with lowered threshold

     CG style diagonalization
     c_bands:  2 eigenvalues not converged
     c_bands:  1 eigenvalues not converged
     c_bands:  1 eigenvalues not converged
     c_bands:  1 eigenvalues not converged
     c_bands:  1 eigenvalues not converged
     c_bands:  1 eigenvalues not converged
     c_bands:  1 eigenvalues not converged
     ethr =  4.70E-05,  avg # of iterations =  8.1

     total cpu time spent up to now is       40.1 secs

     total energy              =    -317.34940037 Ry
     estimated scf accuracy    <       0.01002476 Ry

     iteration #  2     ecut=   106.67 Ry     beta= 0.70
     CG style diagonalization
     ethr =  6.27E-05,  avg # of iterations =  3.0

     total cpu time spent up to now is       50.0 secs

     total energy              =    -317.34979338 Ry
     estimated scf accuracy    <       0.00084286 Ry

     iteration #  3     ecut=   106.67 Ry     beta= 0.70
     CG style diagonalization
     c_bands:  1 eigenvalues not converged
     c_bands:  1 eigenvalues not converged
     c_bands:  1 eigenvalues not converged
     c_bands:  1 eigenvalues not converged
     c_bands:  1 eigenvalues not converged
     c_bands:  1 eigenvalues not converged
     ethr =  5.27E-06,  avg # of iterations =  5.2

     total cpu time spent up to now is       66.1 secs

     total energy              =    -317.35005891 Ry
     estimated scf accuracy    <       0.00000928 Ry

     iteration #  4     ecut=   106.67 Ry     beta= 0.70
     CG style diagonalization
     c_bands:  1 eigenvalues not converged
     c_bands:  1 eigenvalues not converged
     c_bands:  1 eigenvalues not converged
     c_bands:  1 eigenvalues not converged
     c_bands:  2 eigenvalues not converged
     c_bands:  1 eigenvalues not converged
     c_bands:  1 eigenvalues not converged
     c_bands:  1 eigenvalues not converged
     c_bands:  1 eigenvalues not converged
     c_bands:  2 eigenvalues not converged
     c_bands:  1 eigenvalues not converged
     c_bands:  1 eigenvalues not converged
     c_bands:  1 eigenvalues not converged
     c_bands:  1 eigenvalues not converged
     c_bands:  1 eigenvalues not converged
     c_bands:  1 eigenvalues not converged
     ethr =  5.80E-08,  avg # of iterations = 10.8

     total cpu time spent up to now is       98.2 secs

     total energy              =    -317.35032660 Ry
     estimated scf accuracy    <       0.00021406 Ry

     iteration #  5     ecut=   106.67 Ry     beta= 0.70
     CG style diagonalization
     ethr =  5.80E-08,  avg # of iterations =  3.8

     total cpu time spent up to now is      110.2 secs

     total energy              =    -317.35020663 Ry
     estimated scf accuracy    <       0.00033375 Ry

     iteration #  6     ecut=   106.67 Ry     beta= 0.70
     CG style diagonalization
     ethr =  5.80E-08,  avg # of iterations =  7.5

     total cpu time spent up to now is      132.5 secs

     total energy              =    -317.35026575 Ry
     estimated scf accuracy    <       0.00061189 Ry

     iteration #  7     ecut=   106.67 Ry     beta= 0.70
     CG style diagonalization
     ethr =  5.80E-08,  avg # of iterations =  4.0

     total cpu time spent up to now is      144.9 secs

     total energy              =    -317.35025438 Ry
     estimated scf accuracy    <       0.00022525 Ry

     iteration #  8     ecut=   106.67 Ry     beta= 0.70
     CG style diagonalization
     ethr =  5.80E-08,  avg # of iterations =  4.2

     total cpu time spent up to now is      158.0 secs

     total energy              =    -317.35021739 Ry
     estimated scf accuracy    <       0.00012921 Ry

     iteration #  9     ecut=   106.67 Ry     beta= 0.70
     CG style diagonalization
     ethr =  5.80E-08,  avg # of iterations =  6.1

     total cpu time spent up to now is      176.4 secs

     total energy              =    -317.35025026 Ry
     estimated scf accuracy    <       0.00001173 Ry

     iteration # 10     ecut=   106.67 Ry     beta= 0.70
     CG style diagonalization
     ethr =  5.80E-08,  avg # of iterations =  3.2

     total cpu time spent up to now is      186.6 secs

     total energy              =    -317.35025135 Ry
     estimated scf accuracy    <       0.00000241 Ry

     iteration # 11     ecut=   106.67 Ry     beta= 0.70
     CG style diagonalization
     ethr =  1.51E-08,  avg # of iterations =  3.5

     total cpu time spent up to now is      197.8 secs

     total energy              =    -317.35025245 Ry
     estimated scf accuracy    <       0.00000299 Ry

     iteration # 12     ecut=   106.67 Ry     beta= 0.70
     CG style diagonalization
     ethr =  1.51E-08,  avg # of iterations =  3.1

     total cpu time spent up to now is      207.7 secs

     total energy              =    -317.35025273 Ry
     estimated scf accuracy    <       0.00000388 Ry

     iteration # 13     ecut=   106.67 Ry     beta= 0.70
     CG style diagonalization
     ethr =  1.51E-08,  avg # of iterations =  3.0

     total cpu time spent up to now is      217.6 secs

     total energy              =    -317.35025154 Ry
     estimated scf accuracy    <       0.00000442 Ry

     iteration # 14     ecut=   106.67 Ry     beta= 0.70
     CG style diagonalization
     ethr =  1.51E-08,  avg # of iterations =  3.0

     total cpu time spent up to now is      227.5 secs

     total energy              =    -317.35025117 Ry
     estimated scf accuracy    <       0.00000108 Ry

     iteration # 15     ecut=   106.67 Ry     beta= 0.70
     CG style diagonalization
     ethr =  6.76E-09,  avg # of iterations =  4.2

     total cpu time spent up to now is      240.6 secs

     End of self-consistent calculation

          k = 0.0625 0.0625 0.0625 (  5697 PWs)   bands (ev):

    -9.0638  -9.0629  -9.0629  -9.0014  -9.0014  -3.8338   7.5829   8.0746
     8.0747  10.4576  10.5089  10.5091

          k = 0.0625 0.0625 0.1875 (  5712 PWs)   bands (ev):

    -9.0653  -9.0606  -9.0604  -9.0026  -9.0003  -3.6997   6.8079   7.5507
     7.7852  10.1390  10.9019  11.1799

          k = 0.0625 0.0625 0.3125 (  5707 PWs)   bands (ev):

    -9.0687  -9.0560  -9.0557  -9.0049  -8.9982  -3.4326   5.9466   6.9092
     7.0645   9.6137  11.6936  12.1036

          k = 0.0625 0.0625 0.4375 (  5682 PWs)   bands (ev):

    -9.0730  -9.0497  -9.0495  -9.0082  -8.9955  -3.0351   5.0328   6.3077
     6.3120   9.0860  10.9749  13.0995

          k = 0.0625 0.0625 0.5625 (  5674 PWs)   bands (ev):

    -9.0776  -9.0429  -9.0426  -9.0121  -8.9927  -2.5124   4.0496   5.6704
     5.8088   8.6288  10.0547  14.1066

          k = 0.0625 0.0625 0.6875 (  5663 PWs)   bands (ev):

    -9.0818  -9.0365  -9.0361  -9.0159  -8.9901  -1.8746   3.0171   5.1961
     5.4202   8.2733   9.3557  15.1082

          k = 0.0625 0.0625 0.8125 (  5653 PWs)   bands (ev):

    -9.0851  -9.0315  -9.0311  -9.0190  -8.9881  -1.1462   1.9973   4.8851
     5.1564   8.0330   8.8949  16.1102

          k = 0.0625 0.0625 0.9375 (  5667 PWs)   bands (ev):

    -9.0868  -9.0288  -9.0283  -9.0208  -8.9871  -0.4385   1.1351   4.7311
     5.0233   7.9123   8.6672  17.0350

          k = 0.0625 0.1875 0.1875 (  5711 PWs)   bands (ev):

    -9.0649  -9.0601  -9.0586  -9.0024  -9.0003  -3.5665   6.0115   7.1084
     7.9750  10.5681  10.7100  11.1096

          k = 0.0625 0.1875 0.3125 (  5690 PWs)   bands (ev):

    -9.0671  -9.0563  -9.0550  -9.0040  -8.9986  -3.3016   5.2000   6.4580
     7.5464  10.2570  11.1686  11.8290

          k = 0.0625 0.1875 0.4375 (  5677 PWs)   bands (ev):

    -9.0709  -9.0507  -9.0497  -9.0069  -8.9961  -2.9081   4.4173   5.8288
     6.7753   9.7405  11.4598  12.0421

          k = 0.0625 0.1875 0.5625 (  5663 PWs)   bands (ev):

    -9.0750  -9.0451  -9.0430  -9.0104  -8.9934  -2.3923   3.6381   5.2624
     5.9992   9.2622  10.6491  12.8835

          k = 0.0625 0.1875 0.6875 (  5660 PWs)   bands (ev):

    -9.0788  -9.0396  -9.0365  -9.0139  -8.9911  -1.7663   2.8164   4.7740
     5.3988   8.8737  10.0434  13.7729

          k = 0.0625 0.1875 0.8125 (  5662 PWs)   bands (ev):

    -9.0817  -9.0352  -9.0314  -9.0169  -8.9896  -1.0594   1.9532   4.4102
     5.0278   8.6014   9.6562  14.7025

          k = 0.0625 0.1875 0.9375 (  5666 PWs)   bands (ev):

    -9.0833  -9.0326  -9.0286  -9.0186  -8.9888  -0.3927   1.1935   4.2208
     4.8547   8.4617   9.4688  15.6485

          k = 0.0625 0.3125 0.3125 (  5672 PWs)   bands (ev):

    -9.0662  -9.0550  -9.0535  -9.0034  -8.9987  -3.0416   4.4379   5.8194
     7.6460  10.7743  11.1382  11.4951

          k = 0.0625 0.3125 0.4375 (  5672 PWs)   bands (ev):

    -9.0678  -9.0514  -9.0498  -9.0047  -8.9972  -2.6571   3.7320   5.2123
     7.1115  10.7103  11.0508  12.2761

          k = 0.0625 0.3125 0.5625 (  5668 PWs)   bands (ev):

    -9.0707  -9.0482  -9.0433  -9.0074  -8.9951  -2.1569   3.0836   4.6899
     6.2583  10.2732  11.4375  11.7716

          k = 0.0625 0.3125 0.6875 (  5665 PWs)   bands (ev):

    -9.0737  -9.0446  -9.0368  -9.0106  -8.9933  -1.5582   2.4638   4.2691
     5.4161   9.8936  11.1032  12.2975

          k = 0.0625 0.3125 0.8125 (  5662 PWs)   bands (ev):

    -9.0760  -9.0414  -9.0316  -9.0135  -8.9921  -0.9008   1.8375   3.9575
     4.7908   9.6278  10.7841  13.1180

          k = 0.0625 0.3125 0.9375 (  5665 PWs)   bands (ev):

    -9.0772  -9.0394  -9.0288  -9.0152  -8.9916  -0.3231   1.2825   3.7804
     4.4798   9.4923  10.6256  14.0256

          k = 0.0625 0.4375 0.4375 (  5670 PWs)   bands (ev):

    -9.0662  -9.0506  -9.0485  -9.0028  -8.9986  -2.2891   3.0969   4.6307
     7.0497  10.3317  11.8421  12.1021

          k = 0.0625 0.4375 0.5625 (  5669 PWs)   bands (ev):

    -9.0670  -9.0497  -9.0434  -9.0040  -8.9979  -1.8178   2.5403   4.1461
     6.4489  10.2726  11.5652  12.9139

          k = 0.0625 0.4375 0.6875 (  5676 PWs)   bands (ev):

    -9.0687  -9.0485  -9.0371  -9.0072  -8.9962  -1.2702   2.0633   3.7901
     5.5738  10.6266  11.2994  12.5274

          k = 0.0625 0.4375 0.8125 (  5668 PWs)   bands (ev):

    -9.0702  -9.0471  -9.0318  -9.0102  -8.9949  -0.7045   1.6549   3.5866
     4.7511  10.8098  11.5149  12.2985

          k = 0.0625 0.4375 0.9375 (  5669 PWs)   bands (ev):

    -9.0710  -9.0461  -9.0289  -9.0121  -8.9942  -0.2700   1.3507   3.5403
     4.2118  10.7471  11.8524  12.5851

          k = 0.0625 0.5625 0.5625 (  5668 PWs)   bands (ev):

    -9.0667  -9.0482  -9.0417  -9.0023  -9.0000  -1.3979   2.0728   3.7088
     6.3495   9.5381  12.8414  13.0693

          k = 0.0625 0.5625 0.6875 (  5670 PWs)   bands (ev):

    -9.0685  -9.0469  -9.0369  -9.0062  -8.9973  -0.9408   1.7107   3.4285
     5.7649   9.5132  12.6507  13.9137

          k = 0.0625 0.5625 0.8125 (  5661 PWs)   bands (ev):

    -9.0701  -9.0464  -9.0319  -9.0099  -8.9953  -0.5261   1.4687   3.3592
     4.9399  10.0149  12.3772  13.1837

          k = 0.0625 0.6875 0.6875 (  5682 PWs)   bands (ev):

    -9.0720  -9.0422  -9.0355  -9.0093  -8.9953  -0.6337   1.4626   3.2637
     5.7203   8.8329  12.9194  14.1089

          k = 0.0625 0.6875 0.8125 (  5662 PWs)   bands (ev):

    -9.0753  -9.0400  -9.0317  -9.0130  -8.9929  -0.4196   1.3310   3.3726
     5.2090   8.9080  11.6937  14.1100

          k = 0.0625 0.8125 0.8125 (  5675 PWs)   bands (ev):

    -9.0804  -9.0343  -9.0308  -9.0165  -8.9903  -0.3896   1.2415   3.6779
     5.2622   8.3200  10.4674  15.5814

          k = 0.1875 0.1875 0.1875 (  5696 PWs)   bands (ev):

    -9.0649  -9.0583  -9.0583  -9.0012  -9.0012  -3.4345   5.2291   7.5699
     7.5703  10.1115  11.1315  11.1319

          k = 0.1875 0.1875 0.3125 (  5690 PWs)   bands (ev):

    -9.0665  -9.0559  -9.0547  -9.0029  -8.9990  -3.1723   4.4468   7.0191
     7.2994  10.2227  10.9196  11.7237

          k = 0.1875 0.1875 0.4375 (  5677 PWs)   bands (ev):

    -9.0696  -9.0515  -9.0498  -9.0055  -8.9964  -2.7838   3.7339   6.4773
     6.4901   9.8677  11.5816  12.3700

          k = 0.1875 0.1875 0.5625 (  5656 PWs)   bands (ev):

    -9.0732  -9.0462  -9.0441  -9.0087  -8.9939  -2.2770   3.0878   5.5480
     6.0082   9.3018  11.4557  12.6372

          k = 0.1875 0.1875 0.6875 (  5662 PWs)   bands (ev):

    -9.0765  -9.0410  -9.0383  -9.0120  -8.9919  -1.6675   2.4706   4.6698
     5.6407   8.8211  10.9490  13.8357

          k = 0.1875 0.1875 0.8125 (  5658 PWs)   bands (ev):

    -9.0791  -9.0367  -9.0335  -9.0148  -8.9908  -0.9926   1.8300   4.0129
     5.3895   8.4884  10.6256  14.6898

          k = 0.1875 0.3125 0.3125 (  5683 PWs)   bands (ev):

    -9.0664  -9.0544  -9.0533  -9.0019  -8.9990  -2.9162   3.6918   6.5999
     7.4533  10.1506  11.0909  11.4150

          k = 0.1875 0.3125 0.4375 (  5673 PWs)   bands (ev):

    -9.0678  -9.0517  -9.0500  -9.0032  -8.9971  -2.5394   3.0242   6.0112
     7.0019  10.2867  10.9581  11.8805

          k = 0.1875 0.3125 0.5625 (  5665 PWs)   bands (ev):

    -9.0701  -9.0485  -9.0448  -9.0058  -8.9951  -2.0538   2.4605   5.3624
     6.2803   9.8448  11.5107  12.5994

          k = 0.1875 0.3125 0.6875 (  5664 PWs)   bands (ev):

    -9.0725  -9.0451  -9.0392  -9.0087  -8.9937  -1.4837   1.9974   4.5973
     5.7065   9.3866  12.0013  12.4689

          k = 0.1875 0.3125 0.8125 (  5669 PWs)   bands (ev):

    -9.0743  -9.0419  -9.0345  -9.0113  -8.9931  -0.8863   1.6164   3.8466
     5.3668   9.0683  11.8230  13.2164

          k = 0.1875 0.4375 0.4375 (  5673 PWs)   bands (ev):

    -9.0670  -9.0504  -9.0493  -9.0014  -8.9981  -2.1848   2.4065   5.4822
     7.0369  10.2809  11.3369  11.3785

          k = 0.1875 0.4375 0.5625 (  5665 PWs)   bands (ev):

    -9.0675  -9.0497  -9.0449  -9.0025  -8.9974  -1.7406   1.9171   4.9573
     6.5064  10.3489  10.8870  12.4588

          k = 0.1875 0.4375 0.6875 (  5665 PWs)   bands (ev):

    -9.0686  -9.0487  -9.0395  -9.0053  -8.9961  -1.2497   1.5848   4.4238
     5.7665  10.3893  10.9330  13.5211

          k = 0.1875 0.4375 0.8125 (  5667 PWs)   bands (ev):

    -9.0696  -9.0473  -9.0347  -9.0082  -8.9955  -0.7997   1.4422   3.8398
     5.2020  10.1482  11.6090  13.3022

          k = 0.1875 0.5625 0.5625 (  5670 PWs)   bands (ev):

    -9.0673  -9.0486  -9.0435  -9.0012  -8.9989  -1.3758   1.5274   4.5357
     6.4251   9.6741  12.1087  12.1450

          k = 0.1875 0.5625 0.6875 (  5673 PWs)   bands (ev):

    -9.0684  -9.0478  -9.0394  -9.0048  -8.9968  -1.0318   1.3560   4.1607
     5.8938   9.6612  11.8266  13.4935

          k = 0.1875 0.6875 0.6875 (  5670 PWs)   bands (ev):

    -9.0714  -9.0439  -9.0380  -9.0079  -8.9949  -0.9079   1.3852   3.9339
     5.8324   9.0011  12.9190  13.2909

          k = 0.3125 0.3125 0.3125 (  5672 PWs)   bands (ev):

    -9.0670  -9.0528  -9.0528  -8.9997  -8.9997  -2.6695   2.9521   7.1207
     7.1209   9.7036  11.1735  11.1736

          k = 0.3125 0.3125 0.4375 (  5657 PWs)   bands (ev):

    -9.0679  -9.0515  -9.0501  -9.0010  -8.9973  -2.3111   2.3195   6.7322
     6.7908   9.9225  10.8301  11.4502

          k = 0.3125 0.3125 0.5625 (  5664 PWs)   bands (ev):

    -9.0691  -9.0493  -9.0464  -9.0031  -8.9956  -1.8613   1.8256   5.9048
     6.3590   9.7730  11.2989  11.9104

          k = 0.3125 0.3125 0.6875 (  5670 PWs)   bands (ev):

    -9.0704  -9.0465  -9.0420  -9.0055  -8.9948  -1.3634   1.5004   4.8867
     6.0501   9.3311  12.2514  12.5319

          k = 0.3125 0.4375 0.4375 (  5654 PWs)   bands (ev):

    -9.0680  -9.0502  -9.0500  -8.9993  -8.9977  -1.9901   1.7398   6.3898
     6.9895   9.8659  11.0033  11.0151

          k = 0.3125 0.4375 0.5625 (  5656 PWs)   bands (ev):

    -9.0682  -9.0497  -9.0471  -9.0003  -8.9968  -1.6154   1.3406   5.8598
     6.6015  10.1495  10.6444  11.6243

          k = 0.3125 0.4375 0.6875 (  5661 PWs)   bands (ev):

    -9.0684  -9.0489  -9.0432  -9.0025  -8.9965  -1.2635   1.1921   5.0706
     6.1638   9.9416  11.0723  12.5175

          k = 0.3125 0.5625 0.5625 (  5663 PWs)   bands (ev):

    -9.0681  -9.0492  -9.0462  -8.9997  -8.9976  -1.3873   1.1016   5.5397
     6.5622   9.8857  11.1788  11.5186

          k = 0.4375 0.4375 0.4375 (  5657 PWs)   bands (ev):

    -9.0687  -9.0499  -9.0499  -8.9976  -8.9976  -1.7410   1.2401   6.8847
     6.8850   9.4891  10.9102  10.9104

          k = 0.4375 0.4375 0.5625 (  5653 PWs)   bands (ev):

    -9.0687  -9.0496  -9.0486  -8.9983  -8.9970  -1.5107   0.9987   6.4660
     6.7295   9.7852  10.7528  11.0885

     the Fermi energy is     5.5190 ev

!    total energy              =    -317.35025171 Ry
     total all-electron energy =     -4373.657694 Ry
     estimated scf accuracy    <       0.00000065 Ry
     smearing contrib. (-TS)   =      -0.00133656 Ry
     internal energy E=F+TS    =    -317.34891515 Ry

     The total energy is F=E-TS. E is the sum of the following terms:
     one-electron contribution =    -124.51619298 Ry
     hartree contribution      =      75.75968791 Ry
     xc contribution           =     -40.61769222 Ry
     ewald contribution        =     -82.24853881 Ry
     one-center paw contrib.   =    -145.72617905 Ry

     convergence has been achieved in  15 iterations

     Forces acting on atoms (cartesian axes, Ry/au):

     atom    1 type  2   force =     0.00000000    0.00000000    0.00000000
     atom    2 type  1   force =     0.00000000    0.00000000    0.00000000

     Total force =     0.000000     Total SCF correction =     0.000000


     Computing stress (Cartesian axis) and pressure

          total   stress  (Ry/bohr**3)                   (kbar)     P=       71.31
   0.00048475  -0.00000000   0.00000000           71.31       -0.00        0.00
  -0.00000000   0.00048475   0.00000000           -0.00       71.31        0.00
  -0.00000000   0.00000000   0.00048475           -0.00        0.00       71.31


     Writing all to output data dir /home/nico-sachs/source/q-e/tempdir/al.save/ :
     XML data file, charge density, pseudopotentials, collected wavefunctions

     init_run     :      3.87s CPU      4.05s WALL (       1 calls)
     electrons    :    232.68s CPU    236.39s WALL (       1 calls)
     forces       :      1.38s CPU      1.48s WALL (       1 calls)
     stress       :      6.25s CPU      6.53s WALL (       1 calls)

     Called by init_run:
     wfcinit      :      2.59s CPU      2.62s WALL (       1 calls)
     potinit      :      0.38s CPU      0.43s WALL (       1 calls)
     hinit0       :      0.68s CPU      0.69s WALL (       1 calls)

     Called by electrons:
     c_bands      :    205.87s CPU    206.83s WALL (      16 calls)
     sum_band     :     18.51s CPU     20.08s WALL (      16 calls)
     v_of_rho     :      0.59s CPU      0.60s WALL (      16 calls)
     newd         :      3.07s CPU      4.33s WALL (      16 calls)
     PAW_pot      :      5.02s CPU      5.07s WALL (      16 calls)
     mix_rho      :      0.10s CPU      0.10s WALL (      16 calls)

     Called by c_bands:
     init_us_2    :      3.39s CPU      3.41s WALL (    2100 calls)
     ccgdiagg     :    174.15s CPU    175.02s WALL (     960 calls)
     wfcrot       :     32.17s CPU     32.26s WALL (     900 calls)

     Called by *cgdiagg:
     h_psi        :    136.97s CPU    137.53s WALL (   45378 calls)
     s_psi        :     32.96s CPU     33.15s WALL (   89856 calls)

     Called by h_psi:
     h_psi:calbec :     24.42s CPU     24.50s WALL (   45378 calls)
     vloc_psi     :     92.92s CPU     93.32s WALL (   45378 calls)
                                        0.00s GPU  (   45378 calls)
     add_vuspsi   :     19.03s CPU     19.11s WALL (   45378 calls)
     hs_1psi      :    127.37s CPU    127.95s WALL (   44478 calls)
     s_1psi       :     34.61s CPU     34.82s WALL (   44478 calls)

     General routines
     calbec       :     51.62s CPU     51.85s WALL (   91836 calls)
     fft          :      0.35s CPU      0.35s WALL (     202 calls)
     ffts         :      0.02s CPU      0.02s WALL (      16 calls)
     fftw         :     88.65s CPU     88.99s WALL (  122196 calls)

     Parallel routines

     PWSCF        :   4m 4.38s CPU   4m 8.69s WALL


   This run was terminated on:  15:46:20  26Jan2026            

=------------------------------------------------------------------------------=
   JOB DONE.
=------------------------------------------------------------------------------=
