
     Program PWSCF v.7.5 starts on 27Jan2026 at 15:34:34 

     This program is part of the open-source Quantum ESPRESSO suite
     for quantum simulation of materials; please cite
         "P. Giannozzi et al., J. Phys.:Condens. Matter 21 395502 (2009);
         "P. Giannozzi et al., J. Phys.:Condens. Matter 29 465901 (2017);
         "P. Giannozzi et al., J. Chem. Phys. 152 154105 (2020);
          URL http://www.quantum-espresso.org", 
     in publications or presentations arising from this work. More details at
     http://www.quantum-espresso.org/quote

     Parallel version (MPI), running on     4 processors

     MPI processes distributed on     1 nodes
     23261 MiB available memory on the printing compute node when the environment starts

     Waiting for input...
     Reading input from standard input

     Current dimensions of program PWSCF are:
     Max number of different atomic species (ntypx) = 10
     Max number of k-points (npk) =  40000
     Max angular momentum in pseudopotentials (lmaxx) =  4
     file Ga.pbe-dn-kjpaw_psl.1.0.0.UPF: wavefunction(s)  4S renormalized

     R & G space division:  proc/nbgrp/npool/nimage =       4
     Subspace diagonalization in iterative solution of the eigenvalue problem:
     a serial algorithm will be used


     Parallelization info
     --------------------
     sticks:   dense  smooth     PW     G-vecs:    dense   smooth      PW
     Min         250     174     52                10432     6083     998
     Max         251     177     54                10439     6084    1000
     Sum        1003     703    211                41745    24335    3995

     Using Slab Decomposition



     bravais-lattice index     =            4
     lattice parameter (alat)  =       6.0263  a.u.
     unit-cell volume          =     308.1662 (a.u.)^3
     number of atoms/cell      =            4
     number of atomic types    =            2
     number of electrons       =        36.00
     number of Kohn-Sham states=           18
     kinetic-energy cutoff     =      70.0000  Ry
     charge density cutoff     =     400.0000  Ry
     scf convergence threshold =      1.0E-06
     mixing beta               =       0.7000
     number of iterations used =            8  plain     mixing
     Exchange-correlation= PBE
                           (   1   4   3   4   0   0   0)

     celldm(1)=   6.026337  celldm(2)=   0.000000  celldm(3)=   1.625902
     celldm(4)=   0.000000  celldm(5)=   0.000000  celldm(6)=   0.000000

     crystal axes: (cart. coord. in units of alat)
               a(1) = (   1.000000   0.000000   0.000000 )  
               a(2) = (  -0.500000   0.866025   0.000000 )  
               a(3) = (   0.000000   0.000000   1.625902 )  

     reciprocal axes: (cart. coord. in units 2 pi/alat)
               b(1) = (  1.000000  0.577350 -0.000000 )  
               b(2) = (  0.000000  1.154701  0.000000 )  
               b(3) = (  0.000000 -0.000000  0.615043 )  


     PseudoPot. # 1 for Ga read from file:
     /home/nico-sachs/source/q-e/SSSP_1.3.0_PBE_efficiency/Ga.pbe-dn-kjpaw_psl.1.0.0.UPF
     MD5 check sum: a27b4342b1af7e5f338de752e9ed7044
     Pseudo is Projector augmented-wave + core cor, Zval = 13.0
     Generated using "atomic" code by A. Dal Corso  v.5.1
     Shape of augmentation charge: PSQ
     Using radial grid of 1205 points,  6 beta functions with: 
                l(1) =   0
                l(2) =   0
                l(3) =   1
                l(4) =   1
                l(5) =   2
                l(6) =   2
     Q(r) pseudized with 0 coefficients 


     PseudoPot. # 2 for N  read from file:
     /home/nico-sachs/source/q-e/SSSP_1.3.0_PBE_efficiency/N.pbe-n-radius_5.UPF
     MD5 check sum: 16739722b17309cd8fe442a2ace49922
     Pseudo is Ultrasoft + core correction, Zval =  5.0
     Generated using "atomic" code by A. Dal Corso  v.5.1
     Using radial grid of 1085 points,  4 beta functions with: 
                l(1) =   0
                l(2) =   0
                l(3) =   1
                l(4) =   1
     Q(r) pseudized with 0 coefficients 


     atomic species   valence    mass     pseudopotential
     Ga               13.00    69.72300     Ga( 1.00)
     N                 5.00    14.00700     N ( 1.00)

     12 Sym. Ops. (no inversion) found ( 6 have fractional translation)



   Cartesian axes

     site n.     atom                  positions (alat units)
         1        Ga     tau(   1) = (  -0.0000000   0.5773503   0.0000000  )
         2        Ga     tau(   2) = (   0.5000000   0.2886751   0.8129508  )
         3        N      tau(   3) = (  -0.0000000   0.5773503   0.6097131  )
         4        N      tau(   4) = (   0.5000000   0.2886751   1.4226638  )

     number of k points=    21
                       cart. coord. in units 2pi/alat
        k(    1) = (   0.0000000   0.0000000   0.0000000), wk =   0.0138889
        k(    2) = (   0.0000000   0.0000000   0.1537608), wk =   0.0277778
        k(    3) = (   0.0000000   0.0000000  -0.3075217), wk =   0.0138889
        k(    4) = (   0.0000000   0.1924501   0.0000000), wk =   0.0833333
        k(    5) = (   0.0000000   0.1924501   0.1537608), wk =   0.1666667
        k(    6) = (   0.0000000   0.1924501  -0.3075217), wk =   0.0833333
        k(    7) = (   0.0000000   0.3849002   0.0000000), wk =   0.0833333
        k(    8) = (   0.0000000   0.3849002   0.1537608), wk =   0.1666667
        k(    9) = (   0.0000000   0.3849002  -0.3075217), wk =   0.0833333
        k(   10) = (   0.0000000  -0.5773503   0.0000000), wk =   0.0416667
        k(   11) = (   0.0000000  -0.5773503   0.1537608), wk =   0.0833333
        k(   12) = (   0.0000000  -0.5773503  -0.3075217), wk =   0.0416667
        k(   13) = (   0.1666667   0.2886751   0.0000000), wk =   0.0833333
        k(   14) = (   0.1666667   0.2886751   0.1537608), wk =   0.1666667
        k(   15) = (   0.1666667   0.2886751  -0.3075217), wk =   0.0833333
        k(   16) = (   0.1666667   0.4811252   0.0000000), wk =   0.1666667
        k(   17) = (   0.1666667   0.4811252   0.1537608), wk =   0.3333333
        k(   18) = (   0.1666667   0.4811252  -0.3075217), wk =   0.1666667
        k(   19) = (   0.3333333   0.5773503   0.0000000), wk =   0.0277778
        k(   20) = (   0.3333333   0.5773503   0.1537608), wk =   0.0555556
        k(   21) = (   0.3333333   0.5773503  -0.3075217), wk =   0.0277778

     Dense  grid:    41745 G-vectors     FFT dimensions: (  40,  40,  64)

     Smooth grid:    24335 G-vectors     FFT dimensions: (  36,  36,  54)

     Estimated max dynamical RAM per process >      46.82 MB

     Estimated total dynamical RAM >     187.28 MB

     Initial potential from superposition of free atoms

     starting charge      35.9941, renormalised to      36.0000
     Starting wfcs are   26 randomized atomic wfcs
     Checking if some PAW data can be deallocated... 

     total cpu time spent up to now is        1.5 secs

     Self-consistent Calculation

     iteration #  1     ecut=    70.00 Ry     beta= 0.70
     CG style diagonalization
     ethr =  1.00E-02,  avg # of iterations =  2.0

     total cpu time spent up to now is        2.6 secs

     total energy              =    -595.57857855 Ry
     estimated scf accuracy    <       1.11464899 Ry

     iteration #  2     ecut=    70.00 Ry     beta= 0.70
     CG style diagonalization
     ethr =  3.10E-03,  avg # of iterations =  4.8

     total cpu time spent up to now is        4.7 secs

     total energy              =    -596.02573170 Ry
     estimated scf accuracy    <       1.08492609 Ry

     iteration #  3     ecut=    70.00 Ry     beta= 0.70
     CG style diagonalization
     ethr =  3.01E-03,  avg # of iterations =  3.8

     total cpu time spent up to now is        6.4 secs

     total energy              =    -596.21078417 Ry
     estimated scf accuracy    <       0.00973926 Ry

     iteration #  4     ecut=    70.00 Ry     beta= 0.70
     CG style diagonalization
     c_bands:  1 eigenvalues not converged
     c_bands:  1 eigenvalues not converged
     c_bands:  2 eigenvalues not converged
     c_bands:  1 eigenvalues not converged
     c_bands:  1 eigenvalues not converged
     c_bands:  1 eigenvalues not converged
     c_bands:  1 eigenvalues not converged
     c_bands:  2 eigenvalues not converged
     c_bands:  1 eigenvalues not converged
     ethr =  2.71E-05,  avg # of iterations = 10.1

     total cpu time spent up to now is       10.4 secs

     total energy              =    -596.35762347 Ry
     estimated scf accuracy    <       0.03356132 Ry

     iteration #  5     ecut=    70.00 Ry     beta= 0.70
     CG style diagonalization
     ethr =  2.71E-05,  avg # of iterations =  3.9

     total cpu time spent up to now is       12.1 secs

     total energy              =    -596.36502491 Ry
     estimated scf accuracy    <       0.04766482 Ry

     iteration #  6     ecut=    70.00 Ry     beta= 0.70
     CG style diagonalization
     ethr =  2.71E-05,  avg # of iterations =  4.5

     total cpu time spent up to now is       14.0 secs

     total energy              =    -596.36761502 Ry
     estimated scf accuracy    <       0.02123856 Ry

     iteration #  7     ecut=    70.00 Ry     beta= 0.70
     CG style diagonalization
     ethr =  2.71E-05,  avg # of iterations =  3.9

     total cpu time spent up to now is       15.8 secs

     total energy              =    -596.36868479 Ry
     estimated scf accuracy    <       0.03570912 Ry

     iteration #  8     ecut=    70.00 Ry     beta= 0.70
     CG style diagonalization
     ethr =  2.71E-05,  avg # of iterations =  3.1

     total cpu time spent up to now is       17.4 secs

     total energy              =    -596.37004958 Ry
     estimated scf accuracy    <       0.02258103 Ry

     iteration #  9     ecut=    70.00 Ry     beta= 0.70
     CG style diagonalization
     ethr =  2.71E-05,  avg # of iterations =  3.0

     total cpu time spent up to now is       18.8 secs

     total energy              =    -596.36687681 Ry
     estimated scf accuracy    <       0.02871822 Ry

     iteration # 10     ecut=    70.00 Ry     beta= 0.70
     CG style diagonalization
     ethr =  2.71E-05,  avg # of iterations =  3.0

     total cpu time spent up to now is       20.2 secs

     total energy              =    -596.36655770 Ry
     estimated scf accuracy    <       0.00308225 Ry

     iteration # 11     ecut=    70.00 Ry     beta= 0.70
     CG style diagonalization
     ethr =  8.56E-06,  avg # of iterations =  4.0

     total cpu time spent up to now is       21.9 secs

     total energy              =    -596.36744668 Ry
     estimated scf accuracy    <       0.00032724 Ry

     iteration # 12     ecut=    70.00 Ry     beta= 0.70
     CG style diagonalization
     ethr =  9.09E-07,  avg # of iterations =  5.9

     total cpu time spent up to now is       24.4 secs

     total energy              =    -596.36814913 Ry
     estimated scf accuracy    <       0.00031946 Ry

     iteration # 13     ecut=    70.00 Ry     beta= 0.70
     CG style diagonalization
     ethr =  8.87E-07,  avg # of iterations =  4.0

     total cpu time spent up to now is       26.2 secs

     total energy              =    -596.36832775 Ry
     estimated scf accuracy    <       0.00077134 Ry

     iteration # 14     ecut=    70.00 Ry     beta= 0.70
     CG style diagonalization
     ethr =  8.87E-07,  avg # of iterations =  3.3

     total cpu time spent up to now is       27.7 secs

     total energy              =    -596.36833240 Ry
     estimated scf accuracy    <       0.00098148 Ry

     iteration # 15     ecut=    70.00 Ry     beta= 0.70
     CG style diagonalization
     ethr =  8.87E-07,  avg # of iterations =  3.1

     total cpu time spent up to now is       29.1 secs

     total energy              =    -596.36833751 Ry
     estimated scf accuracy    <       0.00096265 Ry

     iteration # 16     ecut=    70.00 Ry     beta= 0.70
     CG style diagonalization
     ethr =  8.87E-07,  avg # of iterations =  3.0

     total cpu time spent up to now is       30.6 secs

     total energy              =    -596.36855902 Ry
     estimated scf accuracy    <       0.00083060 Ry

     iteration # 17     ecut=    70.00 Ry     beta= 0.70
     CG style diagonalization
     ethr =  8.87E-07,  avg # of iterations =  3.3

     total cpu time spent up to now is       32.1 secs

     total energy              =    -596.36929644 Ry
     estimated scf accuracy    <       0.00250662 Ry

     iteration # 18     ecut=    70.00 Ry     beta= 0.70
     CG style diagonalization
     ethr =  8.87E-07,  avg # of iterations =  5.6

     total cpu time spent up to now is       34.5 secs

     total energy              =    -596.36958849 Ry
     estimated scf accuracy    <       0.00999495 Ry

     iteration # 19     ecut=    70.00 Ry     beta= 0.70
     CG style diagonalization
     ethr =  8.87E-07,  avg # of iterations =  3.9

     total cpu time spent up to now is       36.2 secs

     total energy              =    -596.36971369 Ry
     estimated scf accuracy    <       0.01009095 Ry

     iteration # 20     ecut=    70.00 Ry     beta= 0.70
     CG style diagonalization
     ethr =  8.87E-07,  avg # of iterations =  3.3

     total cpu time spent up to now is       37.7 secs

     total energy              =    -596.37032264 Ry
     estimated scf accuracy    <       0.01098595 Ry

     iteration # 21     ecut=    70.00 Ry     beta= 0.70
     CG style diagonalization
     ethr =  8.87E-07,  avg # of iterations =  3.9

     total cpu time spent up to now is       39.5 secs

     total energy              =    -596.36746214 Ry
     estimated scf accuracy    <       0.00721087 Ry

     iteration # 22     ecut=    70.00 Ry     beta= 0.70
     CG style diagonalization
     ethr =  8.87E-07,  avg # of iterations =  5.1

     total cpu time spent up to now is       41.7 secs

     total energy              =    -596.36802632 Ry
     estimated scf accuracy    <       0.00045619 Ry

     iteration # 23     ecut=    70.00 Ry     beta= 0.70
     CG style diagonalization
     ethr =  8.87E-07,  avg # of iterations =  3.8

     total cpu time spent up to now is       43.5 secs

     total energy              =    -596.36790081 Ry
     estimated scf accuracy    <       0.00049795 Ry

     iteration # 24     ecut=    70.00 Ry     beta= 0.70
     CG style diagonalization
     ethr =  8.87E-07,  avg # of iterations =  4.2

     total cpu time spent up to now is       45.4 secs

     total energy              =    -596.36801235 Ry
     estimated scf accuracy    <       0.00002209 Ry

     iteration # 25     ecut=    70.00 Ry     beta= 0.70
     CG style diagonalization
     c_bands:  1 eigenvalues not converged
     c_bands:  1 eigenvalues not converged
     c_bands:  1 eigenvalues not converged
     c_bands:  1 eigenvalues not converged
     c_bands:  1 eigenvalues not converged
     c_bands:  1 eigenvalues not converged
     c_bands:  1 eigenvalues not converged
     c_bands:  2 eigenvalues not converged
     ethr =  6.14E-08,  avg # of iterations = 11.2

     total cpu time spent up to now is       49.9 secs

     total energy              =    -596.36823384 Ry
     estimated scf accuracy    <       0.00015999 Ry

     iteration # 26     ecut=    70.00 Ry     beta= 0.70
     CG style diagonalization
     ethr =  6.14E-08,  avg # of iterations =  4.4

     total cpu time spent up to now is       51.9 secs

     total energy              =    -596.36820959 Ry
     estimated scf accuracy    <       0.00012983 Ry

     iteration # 27     ecut=    70.00 Ry     beta= 0.70
     CG style diagonalization
     ethr =  6.14E-08,  avg # of iterations =  4.2

     total cpu time spent up to now is       53.8 secs

     total energy              =    -596.36846258 Ry
     estimated scf accuracy    <       0.00001735 Ry

     iteration # 28     ecut=    70.00 Ry     beta= 0.70
     CG style diagonalization
     c_bands:  1 eigenvalues not converged
     c_bands:  1 eigenvalues not converged
     c_bands:  1 eigenvalues not converged
     c_bands:  1 eigenvalues not converged
     c_bands:  1 eigenvalues not converged
     c_bands:  1 eigenvalues not converged
     ethr =  4.82E-08,  avg # of iterations = 12.0

     total cpu time spent up to now is       58.5 secs

     total energy              =    -596.36860602 Ry
     estimated scf accuracy    <       0.00180371 Ry

     iteration # 29     ecut=    70.00 Ry     beta= 0.70
     CG style diagonalization
     ethr =  4.82E-08,  avg # of iterations =  5.3

     total cpu time spent up to now is       60.8 secs

     total energy              =    -596.36802487 Ry
     estimated scf accuracy    <       0.00184454 Ry

     iteration # 30     ecut=    70.00 Ry     beta= 0.70
     CG style diagonalization
     c_bands:  1 eigenvalues not converged
     c_bands:  1 eigenvalues not converged
     c_bands:  2 eigenvalues not converged
     ethr =  4.82E-08,  avg # of iterations = 10.3

     total cpu time spent up to now is       65.0 secs

     total energy              =    -596.36819597 Ry
     estimated scf accuracy    <       0.00001471 Ry

     iteration # 31     ecut=    70.00 Ry     beta= 0.70
     CG style diagonalization
     c_bands:  1 eigenvalues not converged
     ethr =  4.09E-08,  avg # of iterations =  5.1

     total cpu time spent up to now is       67.2 secs

     End of self-consistent calculation

          k = 0.0000 0.0000 0.0000 (  3027 PWs)   bands (ev):

    -6.2577  -5.3541  -3.7716  -3.7507  -3.7507  -3.6889  -3.6889  -3.5034
    -3.5034  -3.4043  -3.4043  -2.1431   2.6390   8.6811   8.6811   9.6671
     9.7292   9.7292

          k = 0.0000 0.0000 0.1538 (  3014 PWs)   bands (ev):

    -6.0823  -5.4255  -3.7470  -3.7470  -3.7142  -3.7029  -3.7029  -3.4840
    -3.4840  -3.4143  -3.4143  -2.6956   3.6936   8.1730   8.8279   8.8279
     9.5690   9.5691

          k = 0.0000 0.0000-0.3075 (  3002 PWs)   bands (ev):

    -5.6978  -5.6978  -3.7299  -3.7299  -3.7299  -3.7299  -3.4446  -3.4446
    -3.4446  -3.4446  -3.4163  -3.4163   5.8644   5.8644   9.1916   9.1916
     9.1916   9.1916

          k = 0.0000 0.1925 0.0000 (  3028 PWs)   bands (ev):

    -6.0066  -5.2962  -3.7387  -3.7171  -3.6741  -3.6390  -3.6386  -3.5245
    -3.5021  -3.4404  -3.3988  -1.9580   3.0234   7.0039   8.0074   8.1736
     9.3795   9.4924

          k = 0.0000 0.1925 0.1538 (  3037 PWs)   bands (ev):

    -5.8562  -5.3448  -3.7294  -3.7094  -3.6806  -3.6536  -3.6143  -3.4869
    -3.4840  -3.4407  -3.4112  -2.4719   3.9354   7.1201   7.4505   8.3505
     9.0137   9.2803

          k = 0.0000 0.1925-0.3075 (  3040 PWs)   bands (ev):

    -5.5451  -5.5451  -3.7047  -3.7047  -3.6850  -3.6850  -3.5278  -3.5278
    -3.4449  -3.4449  -3.1765  -3.1765   5.7000   5.7001   8.0848   8.0848
     8.7980   8.7980

          k = 0.0000 0.3849 0.0000 (  3042 PWs)   bands (ev):

    -5.5485  -5.2187  -3.7014  -3.6824  -3.6045  -3.5417  -3.5399  -3.5060
    -3.4575  -3.3879  -3.0828  -1.5949   3.7567   4.8359   5.8340   7.3429
     8.4355   8.9934

          k = 0.0000 0.3849 0.1538 (  3048 PWs)   bands (ev):

    -5.4642  -5.2318  -3.7089  -3.6604  -3.6365  -3.5582  -3.5411  -3.4894
    -3.4504  -3.4018  -2.9658  -1.9510   3.7685   5.0302   6.0376   7.5559
     8.5376   8.7155

          k = 0.0000 0.3849-0.3075 (  3050 PWs)   bands (ev):

    -5.3106  -5.3106  -3.6928  -3.6928  -3.6077  -3.6077  -3.5073  -3.5073
    -3.4291  -3.4291  -2.5704  -2.5704   4.2527   4.2527   7.6334   7.6334
     8.1043   8.1043

          k = 0.0000-0.5774 0.0000 (  3050 PWs)   bands (ev):

    -5.3714  -5.1980  -3.7045  -3.6806  -3.5867  -3.5432  -3.4956  -3.4894
    -3.4139  -3.3790  -2.2594  -1.7177   3.2799   4.4594   5.4929   6.9811
     7.4912   8.7495

          k = 0.0000-0.5774 0.1538 (  3056 PWs)   bands (ev):

    -5.3206  -5.1980  -3.7170  -3.6517  -3.6290  -3.5463  -3.5175  -3.4492
    -3.4125  -3.3914  -2.2035  -1.8133   3.0123   3.8645   6.4161   7.2072
     8.0199   8.4479

          k = 0.0000-0.5774-0.3075 (  3052 PWs)   bands (ev):

    -5.2331  -5.2331  -3.7066  -3.7066  -3.5820  -3.5820  -3.4730  -3.4730
    -3.4066  -3.4066  -2.0314  -2.0314   3.1292   3.1292   7.7911   7.7911
     7.8173   7.8173

          k = 0.1667 0.2887 0.0000 (  3036 PWs)   bands (ev):

    -5.6517  -5.2338  -3.7061  -3.6835  -3.6152  -3.5912  -3.5433  -3.4826
    -3.4718  -3.4255  -3.2639  -1.6627   3.6605   5.6795   6.0569   7.3261
     8.7187   8.8037

          k = 0.1667 0.2887 0.1538 (  3052 PWs)   bands (ev):

    -5.5496  -5.2539  -3.6889  -3.6858  -3.6295  -3.6159  -3.5222  -3.5163
    -3.4491  -3.4329  -3.1557  -2.0826   4.0811   5.7199   6.3003   7.2882
     8.4098   8.7932

          k = 0.1667 0.2887-0.3075 (  3044 PWs)   bands (ev):

    -5.3582  -5.3582  -3.6688  -3.6688  -3.6415  -3.6415  -3.5379  -3.5379
    -3.4344  -3.4344  -2.7599  -2.7599   4.8884   4.8884   7.6079   7.6079
     7.9181   7.9181

          k = 0.1667 0.4811 0.0000 (  3044 PWs)   bands (ev):

    -5.3604  -5.2031  -3.7273  -3.6451  -3.5574  -3.5424  -3.5213  -3.5010
    -3.4395  -3.4055  -2.4227  -1.5096   3.7176   4.6726   5.5250   6.0994
     7.7000   7.9676

          k = 0.1667 0.4811 0.1538 (  3054 PWs)   bands (ev):

    -5.3107  -5.2002  -3.6970  -3.6621  -3.6080  -3.5441  -3.5222  -3.4801
    -3.4319  -3.4220  -2.3284  -1.6816   3.4529   4.2401   5.9670   6.7344
     7.5291   8.2208

          k = 0.1667 0.4811-0.3075 (  3062 PWs)   bands (ev):

    -5.2283  -5.2283  -3.6716  -3.6716  -3.6018  -3.6018  -3.5003  -3.5003
    -3.4245  -3.4245  -2.0458  -2.0458   3.5823   3.5823   6.6773   6.6773
     8.0624   8.0624

          k = 0.3333 0.5774 0.0000 (  3024 PWs)   bands (ev):

    -5.2384  -5.2384  -3.7561  -3.5497  -3.5497  -3.5315  -3.5177  -3.5177
    -3.4708  -3.4236  -1.7237  -1.7237   4.3961   4.3961   4.4473   6.7183
     6.7183   7.0362

          k = 0.3333 0.5774 0.1538 (  3045 PWs)   bands (ev):

    -5.2159  -5.2159  -3.7162  -3.6030  -3.6030  -3.5404  -3.4772  -3.4771
    -3.4753  -3.4594  -1.7180  -1.7180   3.9084   3.9084   4.7456   6.5303
     7.5211   7.5211

          k = 0.3333 0.5774-0.3075 (  3078 PWs)   bands (ev):

    -5.1928  -5.1928  -3.6354  -3.6353  -3.6175  -3.6175  -3.4826  -3.4826
    -3.4581  -3.4581  -1.7122  -1.7122   3.5648   3.5648   5.5454   5.5454
     8.2356   8.2356

     highest occupied level (ev):     9.7292

!    total energy              =    -596.36821444 Ry
     estimated scf accuracy    <       0.00000032 Ry

     The total energy is the sum of the following terms:
     one-electron contribution =    -181.36122382 Ry
     hartree contribution      =     130.09473243 Ry
     xc contribution           =     -87.86971815 Ry
     ewald contribution        =    -233.28276133 Ry
     one-center paw contrib.   =    -223.94924358 Ry

     convergence has been achieved in  31 iterations

     Forces acting on atoms (cartesian axes, Ry/au):

     atom    1 type  1   force =    -0.00000000   -0.00000000   -0.00479844
     atom    2 type  1   force =     0.00000000    0.00000000   -0.00479844
     atom    3 type  2   force =     0.00000000    0.00000000    0.00479844
     atom    4 type  2   force =    -0.00000000    0.00000000    0.00479844

     Total force =     0.009597     Total SCF correction =     0.000035


     Computing stress (Cartesian axis) and pressure

          total   stress  (Ry/bohr**3)                   (kbar)     P=       49.07
   0.00029471  -0.00000000   0.00000000           43.35       -0.00        0.00
  -0.00000000   0.00029471   0.00000000           -0.00       43.35        0.00
   0.00000000   0.00000000   0.00041127            0.00        0.00       60.50


     Writing all to output data dir /home/nico-sachs/source/q-e/tempdir/gan.save/ :
     XML data file, charge density, pseudopotentials, collected wavefunctions

     init_run     :      1.24s CPU      1.32s WALL (       1 calls)
     electrons    :     63.11s CPU     65.70s WALL (       1 calls)
     forces       :      0.21s CPU      0.21s WALL (       1 calls)
     stress       :      0.86s CPU      0.86s WALL (       1 calls)

     Called by init_run:
     wfcinit      :      0.41s CPU      0.43s WALL (       1 calls)
     potinit      :      0.41s CPU      0.44s WALL (       1 calls)
     hinit0       :      0.32s CPU      0.32s WALL (       1 calls)

     Called by electrons:
     c_bands      :     50.52s CPU     52.90s WALL (      31 calls)
     sum_band     :      4.38s CPU      4.56s WALL (      31 calls)
     v_of_rho     :      0.34s CPU      0.35s WALL (      32 calls)
     newd         :      1.23s CPU      1.25s WALL (      32 calls)
     PAW_pot      :      6.79s CPU      6.82s WALL (      32 calls)
     mix_rho      :      0.07s CPU      0.07s WALL (      31 calls)

     Called by c_bands:
     init_us_2    :      0.40s CPU      0.41s WALL (    1365 calls)
     ccgdiagg     :     42.51s CPU     44.56s WALL (     651 calls)
     wfcrot       :      8.07s CPU      8.42s WALL (     651 calls)

     Called by *cgdiagg:
     h_psi        :     31.43s CPU     33.00s WALL (   46385 calls)
     s_psi        :      8.47s CPU      8.84s WALL (   92119 calls)

     Called by h_psi:
     h_psi:calbec :      6.54s CPU      6.84s WALL (   46385 calls)
     vloc_psi     :     19.72s CPU     20.79s WALL (   46385 calls)
                                        0.00s GPU  (   46385 calls)
     add_vuspsi   :      4.80s CPU      4.99s WALL (   46385 calls)
     hs_1psi      :     29.64s CPU     31.08s WALL (   45734 calls)
     s_1psi       :      9.21s CPU      9.63s WALL (   45734 calls)

     General routines
     calbec       :     13.05s CPU     13.63s WALL (   93127 calls)
     fft          :      0.30s CPU      0.31s WALL (     439 calls)
     ffts         :      0.18s CPU      0.18s WALL (      63 calls)
     fftw         :     19.26s CPU     20.32s WALL (  126958 calls)
     interpolate  :      0.19s CPU      0.19s WALL (      32 calls)

     Parallel routines

     PWSCF        :   1m 5.62s CPU   1m 8.30s WALL


   This run was terminated on:  15:35:42  27Jan2026            

=------------------------------------------------------------------------------=
   JOB DONE.
=------------------------------------------------------------------------------=
