
     Program PWSCF v.7.5 starts on 26Jan2026 at 22:49:31 

     This program is part of the open-source Quantum ESPRESSO suite
     for quantum simulation of materials; please cite
         "P. Giannozzi et al., J. Phys.:Condens. Matter 21 395502 (2009);
         "P. Giannozzi et al., J. Phys.:Condens. Matter 29 465901 (2017);
         "P. Giannozzi et al., J. Chem. Phys. 152 154105 (2020);
          URL http://www.quantum-espresso.org", 
     in publications or presentations arising from this work. More details at
     http://www.quantum-espresso.org/quote

     Parallel version (MPI), running on     1 processors

     MPI processes distributed on     1 nodes
     25346 MiB available memory on the printing compute node when the environment starts

     Waiting for input...
     Reading input from standard input

     Current dimensions of program PWSCF are:
     Max number of different atomic species (ntypx) = 10
     Max number of k-points (npk) =  40000
     Max angular momentum in pseudopotentials (lmaxx) =  4
     file In.pbe-dn-rrkjus_psl.0.2.2.UPF: wavefunction(s)  5S renormalized
     Message from routine set_cutoff:
     ecutrho < 4*ecutwfc, are you sure?

     Subspace diagonalization in iterative solution of the eigenvalue problem:
     a serial algorithm will be used


     G-vector sticks info
     --------------------
     sticks:   dense  smooth     PW     G-vecs:    dense   smooth      PW
     Sum         955     955    499                19579    19579    7239

     Using Slab Decomposition



     bravais-lattice index     =            2
     lattice parameter (alat)  =      11.4291  a.u.
     unit-cell volume          =     373.2261 (a.u.)^3
     number of atoms/cell      =            2
     number of atomic types    =            2
     number of electrons       =        18.00
     number of Kohn-Sham states=            9
     kinetic-energy cutoff     =      96.6667  Ry
     charge density cutoff     =     212.0000  Ry
     scf convergence threshold =      1.0E-06
     mixing beta               =       0.7000
     number of iterations used =            8  plain     mixing
     Exchange-correlation= PBE
                           (   1   4   3   4   0   0   0)

     celldm(1)=  11.429064  celldm(2)=   0.000000  celldm(3)=   0.000000
     celldm(4)=   0.000000  celldm(5)=   0.000000  celldm(6)=   0.000000

     crystal axes: (cart. coord. in units of alat)
               a(1) = (  -0.500000   0.000000   0.500000 )  
               a(2) = (   0.000000   0.500000   0.500000 )  
               a(3) = (  -0.500000   0.500000   0.000000 )  

     reciprocal axes: (cart. coord. in units 2 pi/alat)
               b(1) = ( -1.000000 -1.000000  1.000000 )  
               b(2) = (  1.000000  1.000000  1.000000 )  
               b(3) = ( -1.000000  1.000000 -1.000000 )  


     PseudoPot. # 1 for In read from file:
     /home/nico-sachs/source/q-e/SSSP_1.3.0_PBE_efficiency/In.pbe-dn-rrkjus_psl.0.2.2.UPF
     MD5 check sum: 25e7c42c3b55b68f4bf926be2e7201a4
     Pseudo is Ultrasoft + core correction, Zval = 13.0
     Generated using "atomic" code by A. Dal Corso  v.5.0.99 svn rev. 10869
     Using radial grid of 1241 points,  6 beta functions with: 
                l(1) =   0
                l(2) =   0
                l(3) =   1
                l(4) =   1
                l(5) =   2
                l(6) =   2
     Q(r) pseudized with 0 coefficients 


     PseudoPot. # 2 for As read from file:
     /home/nico-sachs/source/q-e/SSSP_1.3.0_PBE_efficiency/As.pbe-n-rrkjus_psl.0.2.UPF
     MD5 check sum: 767315de957beeeb34f87d97bf945c8f
     Pseudo is Ultrasoft + core correction, Zval =  5.0
     Generated using "atomic" code by A. Dal Corso  v.5.0.99 svn rev. 10869
     Using radial grid of 1209 points,  4 beta functions with: 
                l(1) =   0
                l(2) =   0
                l(3) =   1
                l(4) =   1
     Q(r) pseudized with 0 coefficients 


     atomic species   valence    mass     pseudopotential
     In               13.00   114.81800     In( 1.00)
     As                5.00    74.92100     As( 1.00)

     24 Sym. Ops. (no inversion) found



   Cartesian axes

     site n.     atom                  positions (alat units)
         1        In     tau(   1) = (   0.0000000   0.0000000   0.0000000  )
         2        As     tau(   2) = (  -0.2500000   0.2500000   0.2500000  )

     number of k points=    60
                       cart. coord. in units 2pi/alat
        k(    1) = (   0.0625000   0.0625000   0.0625000), wk =   0.0078125
        k(    2) = (   0.0625000   0.0625000   0.1875000), wk =   0.0234375
        k(    3) = (   0.0625000   0.0625000   0.3125000), wk =   0.0234375
        k(    4) = (   0.0625000   0.0625000   0.4375000), wk =   0.0234375
        k(    5) = (   0.0625000   0.0625000   0.5625000), wk =   0.0234375
        k(    6) = (   0.0625000   0.0625000   0.6875000), wk =   0.0234375
        k(    7) = (   0.0625000   0.0625000   0.8125000), wk =   0.0234375
        k(    8) = (   0.0625000   0.0625000   0.9375000), wk =   0.0234375
        k(    9) = (   0.0625000   0.1875000   0.1875000), wk =   0.0234375
        k(   10) = (   0.0625000   0.1875000   0.3125000), wk =   0.0468750
        k(   11) = (   0.0625000   0.1875000   0.4375000), wk =   0.0468750
        k(   12) = (   0.0625000   0.1875000   0.5625000), wk =   0.0468750
        k(   13) = (   0.0625000   0.1875000   0.6875000), wk =   0.0468750
        k(   14) = (   0.0625000   0.1875000   0.8125000), wk =   0.0468750
        k(   15) = (   0.0625000   0.1875000   0.9375000), wk =   0.0468750
        k(   16) = (   0.0625000   0.3125000   0.3125000), wk =   0.0234375
        k(   17) = (   0.0625000   0.3125000   0.4375000), wk =   0.0468750
        k(   18) = (   0.0625000   0.3125000   0.5625000), wk =   0.0468750
        k(   19) = (   0.0625000   0.3125000   0.6875000), wk =   0.0468750
        k(   20) = (   0.0625000   0.3125000   0.8125000), wk =   0.0468750
        k(   21) = (   0.0625000   0.3125000   0.9375000), wk =   0.0468750
        k(   22) = (   0.0625000   0.4375000   0.4375000), wk =   0.0234375
        k(   23) = (   0.0625000   0.4375000   0.5625000), wk =   0.0468750
        k(   24) = (   0.0625000   0.4375000   0.6875000), wk =   0.0468750
        k(   25) = (   0.0625000   0.4375000   0.8125000), wk =   0.0468750
        k(   26) = (   0.0625000   0.4375000   0.9375000), wk =   0.0468750
        k(   27) = (   0.0625000   0.5625000   0.5625000), wk =   0.0234375
        k(   28) = (   0.0625000   0.5625000   0.6875000), wk =   0.0468750
        k(   29) = (   0.0625000   0.5625000   0.8125000), wk =   0.0468750
        k(   30) = (   0.0625000   0.6875000   0.6875000), wk =   0.0234375
        k(   31) = (   0.0625000   0.6875000   0.8125000), wk =   0.0468750
        k(   32) = (   0.0625000   0.8125000   0.8125000), wk =   0.0234375
        k(   33) = (   0.1875000   0.1875000   0.1875000), wk =   0.0078125
        k(   34) = (   0.1875000   0.1875000   0.3125000), wk =   0.0234375
        k(   35) = (   0.1875000   0.1875000   0.4375000), wk =   0.0234375
        k(   36) = (   0.1875000   0.1875000   0.5625000), wk =   0.0234375
        k(   37) = (   0.1875000   0.1875000   0.6875000), wk =   0.0234375
        k(   38) = (   0.1875000   0.1875000   0.8125000), wk =   0.0234375
        k(   39) = (   0.1875000   0.3125000   0.3125000), wk =   0.0234375
        k(   40) = (   0.1875000   0.3125000   0.4375000), wk =   0.0468750
        k(   41) = (   0.1875000   0.3125000   0.5625000), wk =   0.0468750
        k(   42) = (   0.1875000   0.3125000   0.6875000), wk =   0.0468750
        k(   43) = (   0.1875000   0.3125000   0.8125000), wk =   0.0468750
        k(   44) = (   0.1875000   0.4375000   0.4375000), wk =   0.0234375
        k(   45) = (   0.1875000   0.4375000   0.5625000), wk =   0.0468750
        k(   46) = (   0.1875000   0.4375000   0.6875000), wk =   0.0468750
        k(   47) = (   0.1875000   0.4375000   0.8125000), wk =   0.0468750
        k(   48) = (   0.1875000   0.5625000   0.5625000), wk =   0.0234375
        k(   49) = (   0.1875000   0.5625000   0.6875000), wk =   0.0468750
        k(   50) = (   0.1875000   0.6875000   0.6875000), wk =   0.0234375
        k(   51) = (   0.3125000   0.3125000   0.3125000), wk =   0.0078125
        k(   52) = (   0.3125000   0.3125000   0.4375000), wk =   0.0234375
        k(   53) = (   0.3125000   0.3125000   0.5625000), wk =   0.0234375
        k(   54) = (   0.3125000   0.3125000   0.6875000), wk =   0.0234375
        k(   55) = (   0.3125000   0.4375000   0.4375000), wk =   0.0234375
        k(   56) = (   0.3125000   0.4375000   0.5625000), wk =   0.0468750
        k(   57) = (   0.3125000   0.4375000   0.6875000), wk =   0.0468750
        k(   58) = (   0.3125000   0.5625000   0.5625000), wk =   0.0234375
        k(   59) = (   0.4375000   0.4375000   0.4375000), wk =   0.0078125
        k(   60) = (   0.4375000   0.4375000   0.5625000), wk =   0.0234375

     Dense  grid:    19579 G-vectors     FFT dimensions: (  40,  40,  40)

     Estimated max dynamical RAM per process >     128.08 MB

     Check: negative core charge=   -0.000002

     Initial potential from superposition of free atoms

     starting charge      17.9960, renormalised to      18.0000
     Starting wfcs are   13 randomized atomic wfcs

     total cpu time spent up to now is        4.6 secs

     Self-consistent Calculation

     iteration #  1     ecut=    96.67 Ry     beta= 0.70
     CG style diagonalization
     ethr =  1.00E-02,  avg # of iterations =  2.0

     Threshold (ethr) on eigenvalues was too large:
     Diagonalizing with lowered threshold

     CG style diagonalization
     ethr =  3.64E-04,  avg # of iterations =  2.9

     total cpu time spent up to now is       17.8 secs

     total energy              =    -163.05432111 Ry
     estimated scf accuracy    <       0.06791060 Ry

     iteration #  2     ecut=    96.67 Ry     beta= 0.70
     CG style diagonalization
     ethr =  3.77E-04,  avg # of iterations =  3.6

     total cpu time spent up to now is       26.6 secs

     total energy              =    -163.06966658 Ry
     estimated scf accuracy    <       0.01611585 Ry

     iteration #  3     ecut=    96.67 Ry     beta= 0.70
     CG style diagonalization
     ethr =  8.95E-05,  avg # of iterations =  3.6

     total cpu time spent up to now is       35.2 secs

     total energy              =    -163.07418201 Ry
     estimated scf accuracy    <       0.00042198 Ry

     iteration #  4     ecut=    96.67 Ry     beta= 0.70
     CG style diagonalization
     ethr =  2.34E-06,  avg # of iterations =  5.1

     total cpu time spent up to now is       47.1 secs

     total energy              =    -163.07453688 Ry
     estimated scf accuracy    <       0.00006042 Ry

     iteration #  5     ecut=    96.67 Ry     beta= 0.70
     CG style diagonalization
     ethr =  3.36E-07,  avg # of iterations =  4.0

     total cpu time spent up to now is       56.7 secs

     total energy              =    -163.07453707 Ry
     estimated scf accuracy    <       0.00003013 Ry

     iteration #  6     ecut=    96.67 Ry     beta= 0.70
     CG style diagonalization
     ethr =  1.67E-07,  avg # of iterations =  3.6

     total cpu time spent up to now is       65.5 secs

     total energy              =    -163.07453998 Ry
     estimated scf accuracy    <       0.00000272 Ry

     iteration #  7     ecut=    96.67 Ry     beta= 0.70
     CG style diagonalization
     ethr =  1.51E-08,  avg # of iterations =  5.5

     total cpu time spent up to now is       78.4 secs

     End of self-consistent calculation

          k = 0.0625 0.0625 0.0625 (  5979 PWs)   bands (ev):

    -7.8922  -7.8856  -7.8856  -7.7626  -7.7626  -5.2857   5.5668   6.4784
     6.4784

          k = 0.0625 0.0625 0.1875 (  5999 PWs)   bands (ev):

    -7.9075  -7.8807  -7.8800  -7.7647  -7.7607  -5.1788   4.8111   6.2027
     6.2582

          k = 0.0625 0.0625 0.3125 (  5998 PWs)   bands (ev):

    -7.9352  -7.8703  -7.8694  -7.7690  -7.7573  -4.9721   3.9776   5.7815
     5.7967

          k = 0.0625 0.0625 0.4375 (  6002 PWs)   bands (ev):

    -7.9687  -7.8563  -7.8554  -7.7753  -7.7529  -4.6794   3.1558   5.2989
     5.3333

          k = 0.0625 0.0625 0.5625 (  6012 PWs)   bands (ev):

    -8.0020  -7.8408  -7.8400  -7.7826  -7.7482  -4.3221   2.3726   4.8480
     4.9264

          k = 0.0625 0.0625 0.6875 (  6004 PWs)   bands (ev):

    -8.0307  -7.8264  -7.8254  -7.7896  -7.7440  -3.9354   1.6625   4.4855
     4.5982

          k = 0.0625 0.0625 0.8125 (  5986 PWs)   bands (ev):

    -8.0514  -7.8153  -7.8140  -7.7950  -7.7408  -3.5800   1.0880   4.2338
     4.3696

          k = 0.0625 0.0625 0.9375 (  5974 PWs)   bands (ev):

    -8.0623  -7.8095  -7.8077  -7.7978  -7.7392  -3.3532   0.7502   4.1052
     4.2525

          k = 0.0625 0.1875 0.1875 (  5997 PWs)   bands (ev):

    -7.9176  -7.8795  -7.8758  -7.7643  -7.7608  -5.0750   4.2308   5.9296
     6.3707

          k = 0.0625 0.1875 0.3125 (  5992 PWs)   bands (ev):

    -7.9408  -7.8715  -7.8674  -7.7673  -7.7579  -4.8747   3.5287   5.4856
     6.0682

          k = 0.0625 0.1875 0.4375 (  5991 PWs)   bands (ev):

    -7.9707  -7.8589  -7.8556  -7.7726  -7.7535  -4.5918   2.8275   5.0144
     5.5632

          k = 0.0625 0.1875 0.5625 (  5999 PWs)   bands (ev):

    -8.0011  -7.8453  -7.8413  -7.7791  -7.7491  -4.2486   2.1604   4.5836
     5.0580

          k = 0.0625 0.1875 0.6875 (  5995 PWs)   bands (ev):

    -8.0274  -7.8326  -7.8271  -7.7853  -7.7455  -3.8808   1.5560   4.2288
     4.6395

          k = 0.0625 0.1875 0.8125 (  5990 PWs)   bands (ev):

    -8.0465  -7.8226  -7.8161  -7.7900  -7.7431  -3.5478   1.0663   3.9740
     4.3497

          k = 0.0625 0.1875 0.9375 (  5974 PWs)   bands (ev):

    -8.0566  -7.8169  -7.8105  -7.7922  -7.7420  -3.3389   0.7786   3.8400
     4.2037

          k = 0.0625 0.3125 0.3125 (  5997 PWs)   bands (ev):

    -7.9552  -7.8683  -7.8629  -7.7660  -7.7580  -4.6873   2.9480   5.0396
     6.1221

          k = 0.0625 0.3125 0.4375 (  5995 PWs)   bands (ev):

    -7.9773  -7.8595  -7.8552  -7.7685  -7.7552  -4.4248   2.3697   4.5823
     5.7791

          k = 0.0625 0.3125 0.5625 (  6000 PWs)   bands (ev):

    -8.0016  -7.8500  -7.8426  -7.7734  -7.7516  -4.1108   1.8384   4.1826
     5.2471

          k = 0.0625 0.3125 0.6875 (  6000 PWs)   bands (ev):

    -8.0233  -7.8411  -7.8289  -7.7786  -7.7489  -3.7819   1.3789   3.8756
     4.7132

          k = 0.0625 0.3125 0.8125 (  5992 PWs)   bands (ev):

    -8.0393  -7.8333  -7.8182  -7.7826  -7.7475  -3.4934   1.0229   3.6789
     4.2871

          k = 0.0625 0.3125 0.9375 (  5983 PWs)   bands (ev):

    -8.0478  -7.8286  -7.8127  -7.7847  -7.7471  -3.3184   0.8207   3.5920
     4.0445

          k = 0.0625 0.4375 0.4375 (  5996 PWs)   bands (ev):

    -7.9900  -7.8539  -7.8534  -7.7652  -7.7573  -4.1946   1.9101   4.1500
     5.7269

          k = 0.0625 0.4375 0.5625 (  5985 PWs)   bands (ev):

    -8.0063  -7.8502  -7.8426  -7.7670  -7.7562  -3.9269   1.5058   3.7893
     5.3551

          k = 0.0625 0.4375 0.6875 (  5993 PWs)   bands (ev):

    -8.0222  -7.8456  -7.8298  -7.7717  -7.7539  -3.6575   1.1853   3.5408
     4.8188

          k = 0.0625 0.4375 0.8125 (  5986 PWs)   bands (ev):

    -8.0344  -7.8408  -7.8192  -7.7760  -7.7525  -3.4332   0.9644   3.4297
     4.2935

          k = 0.0625 0.4375 0.9375 (  5985 PWs)   bands (ev):

    -8.0410  -7.8375  -7.8137  -7.7783  -7.7520  -3.3037   0.8520   3.4499
     3.9203

          k = 0.0625 0.5625 0.5625 (  5974 PWs)   bands (ev):

    -8.0156  -7.8463  -7.8385  -7.7630  -7.7606  -3.7231   1.2238   3.4806
     5.2499

          k = 0.0625 0.5625 0.6875 (  5969 PWs)   bands (ev):

    -8.0266  -7.8430  -7.8287  -7.7695  -7.7564  -3.5314   1.0218   3.3042
     4.8858

          k = 0.0625 0.5625 0.8125 (  5975 PWs)   bands (ev):

    -8.0358  -7.8398  -7.8190  -7.7752  -7.7534  -3.3836   0.9030   3.2938
     4.3828

          k = 0.0625 0.6875 0.6875 (  5977 PWs)   bands (ev):

    -8.0348  -7.8364  -7.8243  -7.7750  -7.7529  -3.4257   0.9103   3.2198
     4.7924

          k = 0.0625 0.6875 0.8125 (  5965 PWs)   bands (ev):

    -8.0429  -7.8314  -7.8171  -7.7813  -7.7491  -3.3536   0.8477   3.3191
     4.4766

          k = 0.0625 0.8125 0.8125 (  5979 PWs)   bands (ev):

    -8.0513  -7.8221  -7.8135  -7.7883  -7.7446  -3.3415   0.8039   3.5156
     4.4413

          k = 0.1875 0.1875 0.1875 (  6006 PWs)   bands (ev):

    -7.9271  -7.8753  -7.8753  -7.7621  -7.7621  -4.9748   3.7194   6.1538
     6.1538

          k = 0.1875 0.1875 0.3125 (  6002 PWs)   bands (ev):

    -7.9472  -7.8700  -7.8673  -7.7652  -7.7583  -4.7816   3.0900   5.8051
     5.8907

          k = 0.1875 0.1875 0.4375 (  5993 PWs)   bands (ev):

    -7.9737  -7.8602  -7.8562  -7.7699  -7.7537  -4.5099   2.4754   5.2969
     5.4175

          k = 0.1875 0.1875 0.5625 (  5994 PWs)   bands (ev):

    -8.0010  -7.8482  -7.8434  -7.7756  -7.7495  -4.1830   1.9118   4.6688
     5.0554

          k = 0.1875 0.1875 0.6875 (  5990 PWs)   bands (ev):

    -8.0248  -7.8365  -7.8305  -7.7813  -7.7465  -3.8373   1.4188   4.1228
     4.7581

          k = 0.1875 0.1875 0.8125 (  5987 PWs)   bands (ev):

    -8.0422  -7.8272  -7.8197  -7.7858  -7.7450  -3.5302   1.0293   3.7245
     4.5489

          k = 0.1875 0.3125 0.3125 (  6002 PWs)   bands (ev):

    -7.9611  -7.8667  -7.8637  -7.7633  -7.7580  -4.6030   2.5389   5.4706
     6.0021

          k = 0.1875 0.3125 0.4375 (  6004 PWs)   bands (ev):

    -7.9809  -7.8601  -7.8563  -7.7656  -7.7547  -4.3548   2.0159   5.0141
     5.6904

          k = 0.1875 0.3125 0.5625 (  5995 PWs)   bands (ev):

    -8.0023  -7.8518  -7.8454  -7.7700  -7.7512  -4.0619   1.5679   4.5082
     5.2357

          k = 0.1875 0.3125 0.6875 (  5994 PWs)   bands (ev):

    -8.0214  -7.8432  -7.8334  -7.7748  -7.7492  -3.7612   1.2161   3.9955
     4.8556

          k = 0.1875 0.3125 0.8125 (  5989 PWs)   bands (ev):

    -8.0355  -7.8358  -7.8231  -7.7790  -7.7488  -3.5048   0.9728   3.5658
     4.6021

          k = 0.1875 0.4375 0.4375 (  6001 PWs)   bands (ev):

    -7.9926  -7.8554  -7.8548  -7.7622  -7.7561  -4.1442   1.5888   4.6185
     5.7033

          k = 0.1875 0.4375 0.5625 (  5990 PWs)   bands (ev):

    -8.0067  -7.8519  -7.8460  -7.7639  -7.7549  -3.9048   1.2532   4.2162
     5.3771

          k = 0.1875 0.4375 0.6875 (  5992 PWs)   bands (ev):

    -8.0201  -7.8475  -7.8347  -7.7684  -7.7533  -3.6721   1.0343   3.8359
     4.9349

          k = 0.1875 0.4375 0.8125 (  5979 PWs)   bands (ev):

    -8.0303  -7.8429  -7.8248  -7.7727  -7.7530  -3.4866   0.9301   3.5045
     4.5728

          k = 0.1875 0.5625 0.5625 (  5989 PWs)   bands (ev):

    -8.0143  -7.8487  -7.8427  -7.7610  -7.7580  -3.7385   1.0330   3.9179
     5.2951

          k = 0.1875 0.5625 0.6875 (  5986 PWs)   bands (ev):

    -8.0230  -7.8458  -7.8339  -7.7670  -7.7547  -3.5917   0.9316   3.6702
     4.9751

          k = 0.1875 0.6875 0.6875 (  5983 PWs)   bands (ev):

    -8.0291  -7.8403  -7.8300  -7.7727  -7.7515  -3.5351   0.9219   3.5618
     4.8783

          k = 0.3125 0.3125 0.3125 (  6009 PWs)   bands (ev):

    -7.9725  -7.8631  -7.8631  -7.7589  -7.7589  -4.4431   2.0346   5.7901
     5.7901

          k = 0.3125 0.3125 0.4375 (  5999 PWs)   bands (ev):

    -7.9878  -7.8598  -7.8571  -7.7612  -7.7545  -4.2250   1.5810   5.4860
     5.5303

          k = 0.3125 0.3125 0.5625 (  5992 PWs)   bands (ev):

    -8.0040  -7.8538  -7.8488  -7.7647  -7.7515  -3.9755   1.2328   4.8273
     5.2687

          k = 0.3125 0.3125 0.6875 (  5982 PWs)   bands (ev):

    -8.0185  -7.8467  -7.8391  -7.7689  -7.7506  -3.7314   1.0141   4.1383
     5.0425

          k = 0.3125 0.4375 0.4375 (  6007 PWs)   bands (ev):

    -7.9971  -7.8569  -7.8563  -7.7579  -7.7548  -4.0549   1.2126   5.2295
     5.6526

          k = 0.3125 0.4375 0.5625 (  5999 PWs)   bands (ev):

    -8.0072  -7.8540  -7.8505  -7.7594  -7.7534  -3.8727   0.9726   4.8030
     5.4140

          k = 0.3125 0.4375 0.6875 (  5983 PWs)   bands (ev):

    -8.0163  -7.8500  -7.8422  -7.7632  -7.7533  -3.7097   0.8853   4.2321
     5.1525

          k = 0.3125 0.5625 0.5625 (  6003 PWs)   bands (ev):

    -8.0116  -7.8522  -7.8486  -7.7581  -7.7548  -3.7780   0.8516   4.5732
     5.3763

          k = 0.4375 0.4375 0.4375 (  6011 PWs)   bands (ev):

    -8.0025  -7.8567  -7.8567  -7.7545  -7.7545  -3.9481   0.9306   5.5742
     5.5742

          k = 0.4375 0.4375 0.5625 (  6002 PWs)   bands (ev):

    -8.0076  -7.8552  -7.8538  -7.7556  -7.7533  -3.8494   0.8049   5.2403
     5.4762

     highest occupied level (ev):     6.4784

!    total energy              =    -163.07454206 Ry
     estimated scf accuracy    <       0.00000047 Ry

     The total energy is the sum of the following terms:
     one-electron contribution =     -63.89579161 Ry
     hartree contribution      =      44.67184543 Ry
     xc contribution           =     -56.90428484 Ry
     ewald contribution        =     -86.94631103 Ry

     convergence has been achieved in   7 iterations

     Forces acting on atoms (cartesian axes, Ry/au):

     atom    1 type  1   force =     0.00000000    0.00000000    0.00000000
     atom    2 type  2   force =     0.00000000   -0.00000000    0.00000000

     Total force =     0.000000     Total SCF correction =     0.000000


     Computing stress (Cartesian axis) and pressure

          total   stress  (Ry/bohr**3)                   (kbar)     P=       40.49
   0.00027526   0.00000000   0.00000000           40.49        0.00        0.00
   0.00000000   0.00027526  -0.00000000            0.00       40.49       -0.00
   0.00000000   0.00000000   0.00027526            0.00        0.00       40.49


     Writing all to output data dir /home/nico-sachs/source/q-e/tempdir/inas.save/ :
     XML data file, charge density, pseudopotentials, collected wavefunctions

     init_run     :      4.31s CPU      4.39s WALL (       1 calls)
     electrons    :     72.91s CPU     73.80s WALL (       1 calls)
     forces       :      1.19s CPU      1.22s WALL (       1 calls)
     stress       :      5.41s CPU      5.50s WALL (       1 calls)

     Called by init_run:
     wfcinit      :      3.18s CPU      3.20s WALL (       1 calls)
     potinit      :      0.08s CPU      0.09s WALL (       1 calls)
     hinit0       :      0.91s CPU      0.91s WALL (       1 calls)

     Called by electrons:
     c_bands      :     65.48s CPU     65.89s WALL (       8 calls)
     sum_band     :      6.65s CPU      6.93s WALL (       8 calls)
     v_of_rho     :      0.23s CPU      0.24s WALL (       8 calls)
     newd         :      0.63s CPU      0.88s WALL (       8 calls)
     mix_rho      :      0.02s CPU      0.02s WALL (       8 calls)

     Called by c_bands:
     init_us_2    :      2.57s CPU      2.58s WALL (    1140 calls)
     ccgdiagg     :     54.35s CPU     54.73s WALL (     480 calls)
     wfcrot       :     12.60s CPU     12.65s WALL (     420 calls)

     Called by *cgdiagg:
     h_psi        :     41.11s CPU     41.36s WALL (   13564 calls)
     s_psi        :     11.81s CPU     11.89s WALL (   26708 calls)

     Called by h_psi:
     h_psi:calbec :      8.58s CPU      8.61s WALL (   13564 calls)
     vloc_psi     :     25.50s CPU     25.68s WALL (   13564 calls)
                                        0.00s GPU  (   13564 calls)
     add_vuspsi   :      6.76s CPU      6.80s WALL (   13564 calls)
     hs_1psi      :     37.19s CPU     37.43s WALL (   13144 calls)
     s_1psi       :     12.20s CPU     12.29s WALL (   13144 calls)

     General routines
     calbec       :     20.53s CPU     20.63s WALL (   28208 calls)
     fft          :      0.31s CPU      0.31s WALL (     114 calls)
     ffts         :      0.01s CPU      0.01s WALL (       8 calls)
     fftw         :     25.16s CPU     25.31s WALL (   38648 calls)

     Parallel routines

     PWSCF        :   1m24.09s CPU   1m25.25s WALL


   This run was terminated on:  22:50:56  26Jan2026            

=------------------------------------------------------------------------------=
   JOB DONE.
=------------------------------------------------------------------------------=
