
     Program PWSCF v.7.5 starts on 27Jan2026 at 15:39:41 

     This program is part of the open-source Quantum ESPRESSO suite
     for quantum simulation of materials; please cite
         "P. Giannozzi et al., J. Phys.:Condens. Matter 21 395502 (2009);
         "P. Giannozzi et al., J. Phys.:Condens. Matter 29 465901 (2017);
         "P. Giannozzi et al., J. Chem. Phys. 152 154105 (2020);
          URL http://www.quantum-espresso.org", 
     in publications or presentations arising from this work. More details at
     http://www.quantum-espresso.org/quote

     Parallel version (MPI), running on     4 processors

     MPI processes distributed on     1 nodes
     23164 MiB available memory on the printing compute node when the environment starts

     Waiting for input...
     Reading input from standard input

     Current dimensions of program PWSCF are:
     Max number of different atomic species (ntypx) = 10
     Max number of k-points (npk) =  40000
     Max angular momentum in pseudopotentials (lmaxx) =  4
     file Ga.pbe-dn-kjpaw_psl.1.0.0.UPF: wavefunction(s)  4S renormalized

     R & G space division:  proc/nbgrp/npool/nimage =       4
     Subspace diagonalization in iterative solution of the eigenvalue problem:
     a serial algorithm will be used


     Parallelization info
     --------------------
     sticks:   dense  smooth     PW     G-vecs:    dense   smooth      PW
     Min         250     142     40                10432     4444     732
     Max         251     144     41                10439     4445     739
     Sum        1003     571    163                41745    17777    2947

     Using Slab Decomposition



     bravais-lattice index     =            4
     lattice parameter (alat)  =       6.0263  a.u.
     unit-cell volume          =     308.1662 (a.u.)^3
     number of atoms/cell      =            4
     number of atomic types    =            2
     number of electrons       =        36.00
     number of Kohn-Sham states=           18
     kinetic-energy cutoff     =      56.6667  Ry
     charge density cutoff     =     400.0000  Ry
     scf convergence threshold =      1.0E-06
     mixing beta               =       0.7000
     number of iterations used =            8  plain     mixing
     Exchange-correlation= PBE
                           (   1   4   3   4   0   0   0)

     celldm(1)=   6.026337  celldm(2)=   0.000000  celldm(3)=   1.625902
     celldm(4)=   0.000000  celldm(5)=   0.000000  celldm(6)=   0.000000

     crystal axes: (cart. coord. in units of alat)
               a(1) = (   1.000000   0.000000   0.000000 )  
               a(2) = (  -0.500000   0.866025   0.000000 )  
               a(3) = (   0.000000   0.000000   1.625902 )  

     reciprocal axes: (cart. coord. in units 2 pi/alat)
               b(1) = (  1.000000  0.577350 -0.000000 )  
               b(2) = (  0.000000  1.154701  0.000000 )  
               b(3) = (  0.000000 -0.000000  0.615043 )  


     PseudoPot. # 1 for Ga read from file:
     /home/nico-sachs/source/q-e/SSSP_1.3.0_PBE_efficiency/Ga.pbe-dn-kjpaw_psl.1.0.0.UPF
     MD5 check sum: a27b4342b1af7e5f338de752e9ed7044
     Pseudo is Projector augmented-wave + core cor, Zval = 13.0
     Generated using "atomic" code by A. Dal Corso  v.5.1
     Shape of augmentation charge: PSQ
     Using radial grid of 1205 points,  6 beta functions with: 
                l(1) =   0
                l(2) =   0
                l(3) =   1
                l(4) =   1
                l(5) =   2
                l(6) =   2
     Q(r) pseudized with 0 coefficients 


     PseudoPot. # 2 for N  read from file:
     /home/nico-sachs/source/q-e/SSSP_1.3.0_PBE_efficiency/N.pbe-n-radius_5.UPF
     MD5 check sum: 16739722b17309cd8fe442a2ace49922
     Pseudo is Ultrasoft + core correction, Zval =  5.0
     Generated using "atomic" code by A. Dal Corso  v.5.1
     Using radial grid of 1085 points,  4 beta functions with: 
                l(1) =   0
                l(2) =   0
                l(3) =   1
                l(4) =   1
     Q(r) pseudized with 0 coefficients 


     atomic species   valence    mass     pseudopotential
     Ga               13.00    69.72300     Ga( 1.00)
     N                 5.00    14.00700     N ( 1.00)

     12 Sym. Ops. (no inversion) found ( 6 have fractional translation)



   Cartesian axes

     site n.     atom                  positions (alat units)
         1        Ga     tau(   1) = (  -0.0000000   0.5773503   0.0000000  )
         2        Ga     tau(   2) = (   0.5000000   0.2886751   0.8129508  )
         3        N      tau(   3) = (  -0.0000000   0.5773503   0.6097131  )
         4        N      tau(   4) = (   0.5000000   0.2886751   1.4226638  )

     number of k points=    21
                       cart. coord. in units 2pi/alat
        k(    1) = (   0.0000000   0.0000000   0.0000000), wk =   0.0138889
        k(    2) = (   0.0000000   0.0000000   0.1537608), wk =   0.0277778
        k(    3) = (   0.0000000   0.0000000  -0.3075217), wk =   0.0138889
        k(    4) = (   0.0000000   0.1924501   0.0000000), wk =   0.0833333
        k(    5) = (   0.0000000   0.1924501   0.1537608), wk =   0.1666667
        k(    6) = (   0.0000000   0.1924501  -0.3075217), wk =   0.0833333
        k(    7) = (   0.0000000   0.3849002   0.0000000), wk =   0.0833333
        k(    8) = (   0.0000000   0.3849002   0.1537608), wk =   0.1666667
        k(    9) = (   0.0000000   0.3849002  -0.3075217), wk =   0.0833333
        k(   10) = (   0.0000000  -0.5773503   0.0000000), wk =   0.0416667
        k(   11) = (   0.0000000  -0.5773503   0.1537608), wk =   0.0833333
        k(   12) = (   0.0000000  -0.5773503  -0.3075217), wk =   0.0416667
        k(   13) = (   0.1666667   0.2886751   0.0000000), wk =   0.0833333
        k(   14) = (   0.1666667   0.2886751   0.1537608), wk =   0.1666667
        k(   15) = (   0.1666667   0.2886751  -0.3075217), wk =   0.0833333
        k(   16) = (   0.1666667   0.4811252   0.0000000), wk =   0.1666667
        k(   17) = (   0.1666667   0.4811252   0.1537608), wk =   0.3333333
        k(   18) = (   0.1666667   0.4811252  -0.3075217), wk =   0.1666667
        k(   19) = (   0.3333333   0.5773503   0.0000000), wk =   0.0277778
        k(   20) = (   0.3333333   0.5773503   0.1537608), wk =   0.0555556
        k(   21) = (   0.3333333   0.5773503  -0.3075217), wk =   0.0277778

     Dense  grid:    41745 G-vectors     FFT dimensions: (  40,  40,  64)

     Smooth grid:    17777 G-vectors     FFT dimensions: (  30,  30,  48)

     Estimated max dynamical RAM per process >      45.39 MB

     Estimated total dynamical RAM >     181.57 MB

     Initial potential from superposition of free atoms

     starting charge      35.9941, renormalised to      36.0000
     Starting wfcs are   26 randomized atomic wfcs
     Checking if some PAW data can be deallocated... 

     total cpu time spent up to now is        1.6 secs

     Self-consistent Calculation

     iteration #  1     ecut=    56.67 Ry     beta= 0.70
     CG style diagonalization
     ethr =  1.00E-02,  avg # of iterations =  2.0

     total cpu time spent up to now is        3.2 secs

     total energy              =    -595.57798005 Ry
     estimated scf accuracy    <       1.11662901 Ry

     iteration #  2     ecut=    56.67 Ry     beta= 0.70
     CG style diagonalization
     ethr =  3.10E-03,  avg # of iterations =  4.7

     total cpu time spent up to now is        5.2 secs

     total energy              =    -595.98614845 Ry
     estimated scf accuracy    <       1.16399274 Ry

     iteration #  3     ecut=    56.67 Ry     beta= 0.70
     CG style diagonalization
     ethr =  3.10E-03,  avg # of iterations =  3.8

     total cpu time spent up to now is        6.7 secs

     total energy              =    -596.20159883 Ry
     estimated scf accuracy    <       0.00827510 Ry

     iteration #  4     ecut=    56.67 Ry     beta= 0.70
     CG style diagonalization
     c_bands:  2 eigenvalues not converged
     c_bands:  1 eigenvalues not converged
     c_bands:  1 eigenvalues not converged
     c_bands:  1 eigenvalues not converged
     c_bands:  2 eigenvalues not converged
     c_bands:  1 eigenvalues not converged
     c_bands:  1 eigenvalues not converged
     ethr =  2.30E-05,  avg # of iterations = 10.4

     total cpu time spent up to now is       10.2 secs

     total energy              =    -596.35447758 Ry
     estimated scf accuracy    <       0.03619703 Ry

     iteration #  5     ecut=    56.67 Ry     beta= 0.70
     CG style diagonalization
     ethr =  2.30E-05,  avg # of iterations =  3.9

     total cpu time spent up to now is       11.7 secs

     total energy              =    -596.35850039 Ry
     estimated scf accuracy    <       0.04353951 Ry

     iteration #  6     ecut=    56.67 Ry     beta= 0.70
     CG style diagonalization
     ethr =  2.30E-05,  avg # of iterations =  4.7

     total cpu time spent up to now is       13.4 secs

     total energy              =    -596.36249135 Ry
     estimated scf accuracy    <       0.00467357 Ry

     iteration #  7     ecut=    56.67 Ry     beta= 0.70
     CG style diagonalization
     ethr =  1.30E-05,  avg # of iterations =  5.5

     total cpu time spent up to now is       15.3 secs

     total energy              =    -596.36325759 Ry
     estimated scf accuracy    <       0.05034853 Ry

     iteration #  8     ecut=    56.67 Ry     beta= 0.70
     CG style diagonalization
     ethr =  1.30E-05,  avg # of iterations =  3.3

     total cpu time spent up to now is       16.5 secs

     total energy              =    -596.36377094 Ry
     estimated scf accuracy    <       0.02635089 Ry

     iteration #  9     ecut=    56.67 Ry     beta= 0.70
     CG style diagonalization
     ethr =  1.30E-05,  avg # of iterations =  3.0

     total cpu time spent up to now is       17.6 secs

     total energy              =    -596.36623189 Ry
     estimated scf accuracy    <       0.02654768 Ry

     iteration # 10     ecut=    56.67 Ry     beta= 0.70
     CG style diagonalization
     ethr =  1.30E-05,  avg # of iterations =  3.0

     total cpu time spent up to now is       18.8 secs

     total energy              =    -596.35754961 Ry
     estimated scf accuracy    <       0.03551058 Ry

     iteration # 11     ecut=    56.67 Ry     beta= 0.70
     CG style diagonalization
     ethr =  1.30E-05,  avg # of iterations =  4.5

     total cpu time spent up to now is       20.3 secs

     total energy              =    -596.35989811 Ry
     estimated scf accuracy    <       0.00028314 Ry

     iteration # 12     ecut=    56.67 Ry     beta= 0.70
     CG style diagonalization
     c_bands:  1 eigenvalues not converged
     c_bands:  1 eigenvalues not converged
     ethr =  7.87E-07,  avg # of iterations =  9.9

     total cpu time spent up to now is       23.5 secs

     total energy              =    -596.36281697 Ry
     estimated scf accuracy    <       0.00169261 Ry

     iteration # 13     ecut=    56.67 Ry     beta= 0.70
     CG style diagonalization
     ethr =  7.87E-07,  avg # of iterations =  6.8

     total cpu time spent up to now is       25.8 secs

     total energy              =    -596.36182001 Ry
     estimated scf accuracy    <       0.00685996 Ry

     iteration # 14     ecut=    56.67 Ry     beta= 0.70
     CG style diagonalization
     ethr =  7.87E-07,  avg # of iterations =  4.7

     total cpu time spent up to now is       28.3 secs

     total energy              =    -596.36116290 Ry
     estimated scf accuracy    <       0.00320875 Ry

     iteration # 15     ecut=    56.67 Ry     beta= 0.70
     CG style diagonalization
     ethr =  7.87E-07,  avg # of iterations =  4.5

     total cpu time spent up to now is       30.3 secs

     total energy              =    -596.36140753 Ry
     estimated scf accuracy    <       0.00151902 Ry

     iteration # 16     ecut=    56.67 Ry     beta= 0.70
     CG style diagonalization
     ethr =  7.87E-07,  avg # of iterations =  3.4

     total cpu time spent up to now is       31.9 secs

     total energy              =    -596.36136908 Ry
     estimated scf accuracy    <       0.00153049 Ry

     iteration # 17     ecut=    56.67 Ry     beta= 0.70
     CG style diagonalization
     ethr =  7.87E-07,  avg # of iterations =  3.1

     total cpu time spent up to now is       33.2 secs

     total energy              =    -596.36154134 Ry
     estimated scf accuracy    <       0.00115144 Ry

     iteration # 18     ecut=    56.67 Ry     beta= 0.70
     CG style diagonalization
     ethr =  7.87E-07,  avg # of iterations =  3.0

     total cpu time spent up to now is       34.6 secs

     total energy              =    -596.36153968 Ry
     estimated scf accuracy    <       0.00156379 Ry

     iteration # 19     ecut=    56.67 Ry     beta= 0.70
     CG style diagonalization
     ethr =  7.87E-07,  avg # of iterations =  3.0

     total cpu time spent up to now is       36.0 secs

     total energy              =    -596.36154116 Ry
     estimated scf accuracy    <       0.00154736 Ry

     iteration # 20     ecut=    56.67 Ry     beta= 0.70
     CG style diagonalization
     ethr =  7.87E-07,  avg # of iterations =  3.0

     total cpu time spent up to now is       37.3 secs

     total energy              =    -596.36126275 Ry
     estimated scf accuracy    <       0.00154518 Ry

     iteration # 21     ecut=    56.67 Ry     beta= 0.70
     CG style diagonalization
     ethr =  7.87E-07,  avg # of iterations =  3.3

     total cpu time spent up to now is       38.7 secs

     total energy              =    -596.36118329 Ry
     estimated scf accuracy    <       0.00034200 Ry

     iteration # 22     ecut=    56.67 Ry     beta= 0.70
     CG style diagonalization
     ethr =  7.87E-07,  avg # of iterations =  3.7

     total cpu time spent up to now is       40.2 secs

     total energy              =    -596.36123308 Ry
     estimated scf accuracy    <       0.00011818 Ry

     iteration # 23     ecut=    56.67 Ry     beta= 0.70
     CG style diagonalization
     ethr =  3.28E-07,  avg # of iterations =  5.0

     total cpu time spent up to now is       42.2 secs

     total energy              =    -596.36133677 Ry
     estimated scf accuracy    <       0.00009774 Ry

     iteration # 24     ecut=    56.67 Ry     beta= 0.70
     CG style diagonalization
     ethr =  2.71E-07,  avg # of iterations =  3.8

     total cpu time spent up to now is       43.8 secs

     total energy              =    -596.36134253 Ry
     estimated scf accuracy    <       0.00009175 Ry

     iteration # 25     ecut=    56.67 Ry     beta= 0.70
     CG style diagonalization
     ethr =  2.55E-07,  avg # of iterations =  3.2

     total cpu time spent up to now is       45.1 secs

     total energy              =    -596.36134831 Ry
     estimated scf accuracy    <       0.00003842 Ry

     iteration # 26     ecut=    56.67 Ry     beta= 0.70
     CG style diagonalization
     ethr =  1.07E-07,  avg # of iterations =  4.4

     total cpu time spent up to now is       46.8 secs

     total energy              =    -596.36137094 Ry
     estimated scf accuracy    <       0.00003086 Ry

     iteration # 27     ecut=    56.67 Ry     beta= 0.70
     CG style diagonalization
     ethr =  8.57E-08,  avg # of iterations =  4.0

     total cpu time spent up to now is       48.4 secs

     total energy              =    -596.36138380 Ry
     estimated scf accuracy    <       0.00005389 Ry

     iteration # 28     ecut=    56.67 Ry     beta= 0.70
     CG style diagonalization
     ethr =  8.57E-08,  avg # of iterations =  3.1

     total cpu time spent up to now is       49.8 secs

     total energy              =    -596.36142179 Ry
     estimated scf accuracy    <       0.00006701 Ry

     iteration # 29     ecut=    56.67 Ry     beta= 0.70
     CG style diagonalization
     ethr =  8.57E-08,  avg # of iterations =  3.8

     total cpu time spent up to now is       51.3 secs

     total energy              =    -596.36169921 Ry
     estimated scf accuracy    <       0.00021414 Ry

     iteration # 30     ecut=    56.67 Ry     beta= 0.70
     CG style diagonalization
     ethr =  8.57E-08,  avg # of iterations =  9.0

     total cpu time spent up to now is       54.8 secs

     total energy              =    -596.36149599 Ry
     estimated scf accuracy    <       0.00184595 Ry

     iteration # 31     ecut=    56.67 Ry     beta= 0.70
     CG style diagonalization
     ethr =  8.57E-08,  avg # of iterations =  4.8

     total cpu time spent up to now is       57.0 secs

     total energy              =    -596.36140489 Ry
     estimated scf accuracy    <       0.00091728 Ry

     iteration # 32     ecut=    56.67 Ry     beta= 0.70
     CG style diagonalization
     ethr =  8.57E-08,  avg # of iterations =  4.1

     total cpu time spent up to now is       58.8 secs

     total energy              =    -596.36119818 Ry
     estimated scf accuracy    <       0.00054719 Ry

     iteration # 33     ecut=    56.67 Ry     beta= 0.70
     CG style diagonalization
     c_bands:  1 eigenvalues not converged
     ethr =  8.57E-08,  avg # of iterations =  9.5

     total cpu time spent up to now is       62.2 secs

     total energy              =    -596.36137065 Ry
     estimated scf accuracy    <       0.00004248 Ry

     iteration # 34     ecut=    56.67 Ry     beta= 0.70
     CG style diagonalization
     ethr =  8.57E-08,  avg # of iterations =  4.7

     total cpu time spent up to now is       63.9 secs

     total energy              =    -596.36136498 Ry
     estimated scf accuracy    <       0.00006139 Ry

     iteration # 35     ecut=    56.67 Ry     beta= 0.70
     CG style diagonalization
     ethr =  8.57E-08,  avg # of iterations =  3.6

     total cpu time spent up to now is       65.2 secs

     total energy              =    -596.36136846 Ry
     estimated scf accuracy    <       0.00000529 Ry

     iteration # 36     ecut=    56.67 Ry     beta= 0.70
     CG style diagonalization
     ethr =  1.47E-08,  avg # of iterations =  5.1

     total cpu time spent up to now is       67.0 secs

     total energy              =    -596.36137293 Ry
     estimated scf accuracy    <       0.00000311 Ry

     iteration # 37     ecut=    56.67 Ry     beta= 0.70
     CG style diagonalization
     ethr =  8.65E-09,  avg # of iterations =  4.5

     total cpu time spent up to now is       68.8 secs

     total energy              =    -596.36137411 Ry
     estimated scf accuracy    <       0.00000754 Ry

     iteration # 38     ecut=    56.67 Ry     beta= 0.70
     CG style diagonalization
     ethr =  8.65E-09,  avg # of iterations =  3.5

     total cpu time spent up to now is       70.1 secs

     total energy              =    -596.36137439 Ry
     estimated scf accuracy    <       0.00000708 Ry

     iteration # 39     ecut=    56.67 Ry     beta= 0.70
     CG style diagonalization
     ethr =  8.65E-09,  avg # of iterations =  3.1

     total cpu time spent up to now is       71.3 secs

     total energy              =    -596.36137600 Ry
     estimated scf accuracy    <       0.00000670 Ry

     iteration # 40     ecut=    56.67 Ry     beta= 0.70
     CG style diagonalization
     ethr =  8.65E-09,  avg # of iterations =  3.1

     total cpu time spent up to now is       72.5 secs

     total energy              =    -596.36137545 Ry
     estimated scf accuracy    <       0.00001057 Ry

     iteration # 41     ecut=    56.67 Ry     beta= 0.70
     CG style diagonalization
     ethr =  8.65E-09,  avg # of iterations =  3.0

     total cpu time spent up to now is       73.7 secs

     total energy              =    -596.36137280 Ry
     estimated scf accuracy    <       0.00001112 Ry

     iteration # 42     ecut=    56.67 Ry     beta= 0.70
     CG style diagonalization
     ethr =  8.65E-09,  avg # of iterations =  3.5

     total cpu time spent up to now is       75.0 secs

     End of self-consistent calculation

          k = 0.0000 0.0000 0.0000 (  2225 PWs)   bands (ev):

    -6.2573  -5.3430  -3.7490  -3.7281  -3.7281  -3.6662  -3.6662  -3.4805
    -3.4805  -3.3811  -3.3811  -2.1275   2.6410   8.6915   8.6915   9.6835
     9.7472   9.7472

          k = 0.0000 0.0000 0.1538 (  2225 PWs)   bands (ev):

    -6.0812  -5.4165  -3.7244  -3.7244  -3.6923  -3.6802  -3.6802  -3.4610
    -3.4610  -3.3911  -3.3911  -2.6797   3.6986   8.1863   8.8392   8.8392
     9.5856   9.5856

          k = 0.0000 0.0000-0.3075 (  2232 PWs)   bands (ev):

    -5.6937  -5.6937  -3.7073  -3.7073  -3.7073  -3.7073  -3.4215  -3.4215
    -3.4215  -3.4215  -3.3970  -3.3970   5.8734   5.8734   9.2053   9.2053
     9.2053   9.2053

          k = 0.0000 0.1925 0.0000 (  2213 PWs)   bands (ev):

    -6.0049  -5.2845  -3.7162  -3.6944  -3.6518  -3.6169  -3.6158  -3.5016
    -3.4792  -3.4174  -3.3756  -1.9428   3.0255   7.0124   8.0206   8.1826
     9.3942   9.5084

          k = 0.0000 0.1925 0.1538 (  2215 PWs)   bands (ev):

    -5.8536  -5.3347  -3.7067  -3.6866  -3.6580  -3.6308  -3.5928  -3.4642
    -3.4610  -3.4182  -3.3881  -2.4565   3.9407   7.1307   7.4610   8.3603
     9.0276   9.2951

          k = 0.0000 0.1925-0.3075 (  2240 PWs)   bands (ev):

    -5.5392  -5.5392  -3.6821  -3.6821  -3.6622  -3.6622  -3.5056  -3.5056
    -3.4218  -3.4218  -3.1577  -3.1577   5.7097   5.7097   8.0948   8.0948
     8.8100   8.8100

          k = 0.0000 0.3849 0.0000 (  2216 PWs)   bands (ev):

    -5.5419  -5.2057  -3.6788  -3.6597  -3.5819  -3.5188  -3.5168  -3.4832
    -3.4345  -3.3647  -3.0650  -1.5803   3.7594   4.8400   5.8432   7.3483
     8.4465   9.0058

          k = 0.0000 0.3849 0.1538 (  2225 PWs)   bands (ev):

    -5.4567  -5.2195  -3.6864  -3.6377  -3.6139  -3.5352  -3.5183  -3.4665
    -3.4273  -3.3786  -2.9487  -1.9366   3.7731   5.0375   6.0434   7.5623
     8.5483   8.7266

          k = 0.0000 0.3849-0.3075 (  2206 PWs)   bands (ev):

    -5.3006  -5.3006  -3.6703  -3.6703  -3.5849  -3.5849  -3.4845  -3.4845
    -3.4060  -3.4060  -2.5551  -2.5551   4.2596   4.2596   7.6416   7.6416
     8.1130   8.1130

          k = 0.0000-0.5774 0.0000 (  2216 PWs)   bands (ev):

    -5.3609  -5.1847  -3.6820  -3.6580  -3.5640  -3.5205  -3.4725  -3.4663
    -3.3907  -3.3558  -2.2434  -1.7042   3.2837   4.4635   5.4965   6.9850
     7.4997   8.7605

          k = 0.0000-0.5774 0.1538 (  2218 PWs)   bands (ev):

    -5.3097  -5.1850  -3.6946  -3.6290  -3.6065  -3.5234  -3.4944  -3.4260
    -3.3893  -3.3682  -2.1881  -1.7996   3.0156   3.8688   6.4217   7.2119
     8.0287   8.4576

          k = 0.0000-0.5774-0.3075 (  2224 PWs)   bands (ev):

    -5.2211  -5.2211  -3.6842  -3.6842  -3.5591  -3.5591  -3.4500  -3.4500
    -3.3833  -3.3833  -2.0169  -2.0169   3.1328   3.1328   7.7980   7.7980
     7.8254   7.8254

          k = 0.1667 0.2887 0.0000 (  2219 PWs)   bands (ev):

    -5.6467  -5.2210  -3.6835  -3.6608  -3.5924  -3.5685  -3.5205  -3.4596
    -3.4488  -3.4030  -3.2441  -1.6479   3.6628   5.6851   6.0666   7.3324
     8.7313   8.8159

          k = 0.1667 0.2887 0.1538 (  2213 PWs)   bands (ev):

    -5.5435  -5.2421  -3.6662  -3.6631  -3.6067  -3.5933  -3.4994  -3.4935
    -3.4260  -3.4100  -3.1371  -2.0680   4.0865   5.7297   6.3059   7.2952
     8.4213   8.8046

          k = 0.1667 0.2887-0.3075 (  2212 PWs)   bands (ev):

    -5.3493  -5.3493  -3.6461  -3.6461  -3.6188  -3.6188  -3.5153  -3.5153
    -3.4112  -3.4112  -2.7437  -2.7437   4.8968   4.8968   7.6174   7.6174
     7.9259   7.9259

          k = 0.1667 0.4811 0.0000 (  2225 PWs)   bands (ev):

    -5.3503  -5.1897  -3.7048  -3.6223  -3.5346  -3.5195  -3.4983  -3.4780
    -3.4163  -3.3824  -2.4071  -1.4950   3.7205   4.6774   5.5293   6.1029
     7.7084   7.9778

          k = 0.1667 0.4811 0.1538 (  2221 PWs)   bands (ev):

    -5.3001  -5.1872  -3.6745  -3.6394  -3.5853  -3.5211  -3.4993  -3.4571
    -3.4088  -3.3989  -2.3131  -1.6671   3.4561   4.2454   5.9714   6.7396
     7.5379   8.2294

          k = 0.1667 0.4811-0.3075 (  2220 PWs)   bands (ev):

    -5.2164  -5.2164  -3.6491  -3.6491  -3.5789  -3.5789  -3.4774  -3.4774
    -3.4013  -3.4013  -2.0311  -2.0311   3.5867   3.5867   6.6840   6.6840
     8.0699   8.0699

          k = 0.3333 0.5774 0.0000 (  2223 PWs)   bands (ev):

    -5.2259  -5.2259  -3.7338  -3.5268  -3.5268  -3.5084  -3.4948  -3.4948
    -3.4478  -3.4006  -1.7088  -1.7088   4.3990   4.3990   4.4494   6.7247
     6.7247   7.0441

          k = 0.3333 0.5774 0.1538 (  2214 PWs)   bands (ev):

    -5.2033  -5.2033  -3.6936  -3.5803  -3.5803  -3.5173  -3.4541  -3.4541
    -3.4522  -3.4365  -1.7031  -1.7031   3.9117   3.9117   4.7486   6.5376
     7.5279   7.5279

          k = 0.3333 0.5774-0.3075 (  2238 PWs)   bands (ev):

    -5.1801  -5.1801  -3.6127  -3.6127  -3.5948  -3.5948  -3.4595  -3.4595
    -3.4351  -3.4351  -1.6973  -1.6973   3.5681   3.5681   5.5504   5.5504
     8.2429   8.2429

     highest occupied level (ev):     9.7472

!    total energy              =    -596.36137275 Ry
     estimated scf accuracy    <       0.00000068 Ry

     The total energy is the sum of the following terms:
     one-electron contribution =    -181.37828048 Ry
     hartree contribution      =     130.04579882 Ry
     xc contribution           =     -87.86246105 Ry
     ewald contribution        =    -233.28276133 Ry
     one-center paw contrib.   =    -223.88366872 Ry

     convergence has been achieved in  42 iterations

     Forces acting on atoms (cartesian axes, Ry/au):

     atom    1 type  1   force =     0.00000000   -0.00000000   -0.00486279
     atom    2 type  1   force =     0.00000000    0.00000000   -0.00486279
     atom    3 type  2   force =     0.00000000    0.00000000    0.00486279
     atom    4 type  2   force =    -0.00000000   -0.00000000    0.00486279

     Total force =     0.009726     Total SCF correction =     0.000036


     Computing stress (Cartesian axis) and pressure

          total   stress  (Ry/bohr**3)                   (kbar)     P=       55.72
   0.00033928   0.00000000   0.00000000           49.91        0.00        0.00
   0.00000000   0.00033928   0.00000000            0.00       49.91        0.00
   0.00000000   0.00000000   0.00045779            0.00        0.00       67.34


     Writing all to output data dir /home/nico-sachs/source/q-e/tempdir/gan.save/ :
     XML data file, charge density, pseudopotentials, collected wavefunctions

     init_run     :      1.39s CPU      1.46s WALL (       1 calls)
     electrons    :     70.31s CPU     73.41s WALL (       1 calls)
     forces       :      0.19s CPU      0.19s WALL (       1 calls)
     stress       :      0.77s CPU      0.77s WALL (       1 calls)

     Called by init_run:
     wfcinit      :      0.48s CPU      0.51s WALL (       1 calls)
     potinit      :      0.40s CPU      0.43s WALL (       1 calls)
     hinit0       :      0.39s CPU      0.40s WALL (       1 calls)

     Called by electrons:
     c_bands      :     52.12s CPU     54.97s WALL (      42 calls)
     sum_band     :      5.30s CPU      5.52s WALL (      42 calls)
     v_of_rho     :      0.53s CPU      0.55s WALL (      43 calls)
     newd         :      1.86s CPU      1.88s WALL (      43 calls)
     PAW_pot      :     10.64s CPU     10.67s WALL (      43 calls)
     mix_rho      :      0.08s CPU      0.08s WALL (      42 calls)

     Called by c_bands:
     init_us_2    :      0.42s CPU      0.44s WALL (    1827 calls)
     ccgdiagg     :     43.40s CPU     45.76s WALL (     882 calls)
     wfcrot       :      8.85s CPU      9.33s WALL (     882 calls)

     Called by *cgdiagg:
     h_psi        :     30.74s CPU     32.60s WALL (   55771 calls)
     s_psi        :      8.58s CPU      9.01s WALL (  110660 calls)

     Called by h_psi:
     h_psi:calbec :      7.11s CPU      7.51s WALL (   55771 calls)
     vloc_psi     :     18.29s CPU     19.51s WALL (   55771 calls)
                                        0.00s GPU  (   55771 calls)
     add_vuspsi   :      4.86s CPU      5.09s WALL (   55771 calls)
     hs_1psi      :     28.75s CPU     30.39s WALL (   54889 calls)
     s_1psi       :      9.71s CPU     10.19s WALL (   54889 calls)

     General routines
     calbec       :     14.04s CPU     14.78s WALL (  111899 calls)
     fft          :      0.40s CPU      0.42s WALL (     582 calls)
     ffts         :      0.15s CPU      0.15s WALL (      85 calls)
     fftw         :     18.20s CPU     19.43s WALL (  157742 calls)
     interpolate  :      0.16s CPU      0.17s WALL (      43 calls)

     Parallel routines

     PWSCF        :   1m12.84s CPU   1m16.05s WALL


   This run was terminated on:  15:40:57  27Jan2026            

=------------------------------------------------------------------------------=
   JOB DONE.
=------------------------------------------------------------------------------=
