
     Program PHONON v.7.5 starts on 24Feb2026 at 17:36: 5 
        Git branch: develop
        Last git commit: 797f00f1d3f390f642411209b167af6668f3cb83
        Last git commit date: Mon Dec 8 18:25:28 2025 +0000
        Last git commit subject: Merge branch 'uniform_uv' into 'develop'

     This program is part of the open-source Quantum ESPRESSO suite
     for quantum simulation of materials; please cite
         "P. Giannozzi et al., J. Phys.:Condens. Matter 21 395502 (2009);
         "P. Giannozzi et al., J. Phys.:Condens. Matter 29 465901 (2017);
         "P. Giannozzi et al., J. Chem. Phys. 152 154105 (2020);
          URL http://www.quantum-espresso.org", 
     in publications or presentations arising from this work. More details at
     http://www.quantum-espresso.org/quote

     Parallel version (MPI), running on    24 processors

     MPI processes distributed on     1 nodes
     95040 MiB available memory on the printing compute node when the environment starts

     Waiting for input...
     Reading input from standard input
      Title line not specified: using 'default'.

     Reading xml data from directory:

     /home/sachs/software/q-e/tempdir/gapPBEsol.save/

     R & G space division:  proc/nbgrp/npool/nimage =      24
     Subspace diagonalization in iterative solution of the eigenvalue problem:
     a serial algorithm will be used


     IMPORTANT: XC functional enforced from input :
     Exchange-correlation= PBESOL
                           (   1   4  10   8   0   0   0)
     Any further DFT definition will be discarded
     Please, verify this is what you really want


     Parallelization info
     --------------------
     sticks:   dense  smooth     PW     G-vecs:    dense   smooth      PW
     Min          91      60     18                 2804     1526     248
     Max          92      61     19                 2807     1528     251
     Sum        2185    1459    433                67337    36661    5985

     Using Slab Decomposition

     Reading collected, re-writing distributed wavefunctions in /home/sachs/software/q-e/tempdir/

     Number and degeneracy of irreps per q-point
       N         xq(1)         xq(2)         xq(3)   N irreps
  autoval = 0.1892E+00
     Irreps are as follows:

                     mode #   1
                     (  -0.00000  -0.00000   ) 
                     (  -0.00000  -0.00000   ) 
                     (  -0.00000  -0.00000   ) 
                     (  -0.60049  -0.00000   ) 
                     (   0.79861  -0.00000   ) 
                     (   0.04030  -0.00000   ) 
  autoval = 0.1892E+00
     Irreps are as follows:

                     mode #   2
                     (  -0.00000  -0.00000   ) 
                     (  -0.00000  -0.00000   ) 
                     (  -0.00000  -0.00000   ) 
                     (  -0.34972  -0.00000   ) 
                     (  -0.30762  -0.00000   ) 
                     (   0.88491  -0.00000   ) 
  autoval = 0.1892E+00
     Irreps are as follows:

                     mode #   3
                     (  -0.00000  -0.00000   ) 
                     (  -0.00000  -0.00000   ) 
                     (  -0.00000  -0.00000   ) 
                     (  -0.71910  -0.00000   ) 
                     (  -0.51729  -0.00000   ) 
                     (  -0.46402  -0.00000   ) 
  autoval = 0.2681E+01
     Irreps are as follows:

                     mode #   4
                     (  -0.10000  -0.00000   ) 
                     (   0.70000   0.00000   ) 
                     (  -0.70711  -0.00000   ) 
                     (  -0.00000  -0.00000   ) 
                     (  -0.00000  -0.00000   ) 
                     (  -0.00000  -0.00000   ) 
  autoval = 0.2681E+01
     Irreps are as follows:

                     mode #   5
                     (  -0.98995  -0.00000   ) 
                     (  -0.14142  -0.00000   ) 
                     (  -0.00000  -0.00000   ) 
                     (  -0.00000  -0.00000   ) 
                     (  -0.00000  -0.00000   ) 
                     (  -0.00000  -0.00000   ) 
  autoval = 0.2681E+01
     Irreps are as follows:

                     mode #   6
                     (  -0.10000  -0.00000   ) 
                     (   0.70000   0.00000   ) 
                     (   0.70711   0.00000   ) 
                     (  -0.00000   0.00000   ) 
                     (  -0.00000   0.00000   ) 
                     (  -0.00000   0.00000   ) 
       1   0.000000000   0.000000000   0.000000000       2
        3   3

     Calculation of q =    0.0000000   0.0000000   0.0000000

     default                                                                    

     bravais-lattice index     =            2
     lattice parameter (alat)  =      10.2795  a.u.
     unit-cell volume          =     271.5518 (a.u.)^3
     number of atoms/cell      =            2
     number of atomic types    =            2
     kinetic-energy cut-off    =     100.0000  Ry
     charge density cut-off    =     600.0000  Ry
     convergence threshold     =      1.0E-13
     beta                      =       0.3000
     number of iterations used =            4
     Exchange-correlation= PBESOL
                           (   1   4  10   8   0   0   0)


     celldm(1)=   10.27947  celldm(2)=    0.00000  celldm(3)=    0.00000
     celldm(4)=    0.00000  celldm(5)=    0.00000  celldm(6)=    0.00000

     crystal axes: (cart. coord. in units of alat)
               a(1) = ( -0.5000  0.0000  0.5000 )  
               a(2) = (  0.0000  0.5000  0.5000 )  
               a(3) = ( -0.5000  0.5000  0.0000 )  

     reciprocal axes: (cart. coord. in units 2 pi/alat)
               b(1) = ( -1.0000 -1.0000  1.0000 )  
               b(2) = (  1.0000  1.0000  1.0000 )  
               b(3) = ( -1.0000  1.0000 -1.0000 )  


     Atoms inside the unit cell: 

     Cartesian axes

     site n.  atom      mass           positions (alat units)
        1  Ga     69.7230   tau(    1) = (    0.00000    0.00000    0.00000  )
        2  P      30.9730   tau(    2) = (   -0.25000    0.25000    0.25000  )

     Computing dynamical matrix for 
                    q = (   0.0000000   0.0000000   0.0000000 )

     25 Sym.Ops. (with q -> -q+G )

                                    s                        frac. trans.

      isym =  1     identity                                     

 cryst.   s( 1) = (     1          0          0      )
                  (     0          1          0      )
                  (     0          0          1      )

 cart.    s( 1) = (  1.0000000  0.0000000  0.0000000 )
                  (  0.0000000  1.0000000  0.0000000 )
                  (  0.0000000  0.0000000  1.0000000 )


      isym =  2     180 deg rotation - cart. axis [0,0,1]        

 cryst.   s( 2) = (     0          1         -1      )
                  (     1          0         -1      )
                  (     0          0         -1      )

 cart.    s( 2) = ( -1.0000000  0.0000000  0.0000000 )
                  (  0.0000000 -1.0000000  0.0000000 )
                  (  0.0000000  0.0000000  1.0000000 )


      isym =  3     180 deg rotation - cart. axis [0,1,0]        

 cryst.   s( 3) = (    -1          0          0      )
                  (    -1          0          1      )
                  (    -1          1          0      )

 cart.    s( 3) = ( -1.0000000  0.0000000  0.0000000 )
                  (  0.0000000  1.0000000  0.0000000 )
                  (  0.0000000  0.0000000 -1.0000000 )


      isym =  4     180 deg rotation - cart. axis [1,0,0]        

 cryst.   s( 4) = (     0         -1          1      )
                  (     0         -1          0      )
                  (     1         -1          0      )

 cart.    s( 4) = (  1.0000000  0.0000000  0.0000000 )
                  (  0.0000000 -1.0000000  0.0000000 )
                  (  0.0000000  0.0000000 -1.0000000 )


      isym =  5     120 deg rotation - cart. axis [-1,-1,-1]     

 cryst.   s( 5) = (    -1          0          1      )
                  (    -1          1          0      )
                  (    -1          0          0      )

 cart.    s( 5) = (  0.0000000  1.0000000  0.0000000 )
                  (  0.0000000  0.0000000  1.0000000 )
                  (  1.0000000  0.0000000  0.0000000 )


      isym =  6     120 deg rotation - cart. axis [-1,1,1]       

 cryst.   s( 6) = (     0          1          0      )
                  (     0          0          1      )
                  (     1          0          0      )

 cart.    s( 6) = (  0.0000000 -1.0000000  0.0000000 )
                  (  0.0000000  0.0000000  1.0000000 )
                  ( -1.0000000  0.0000000  0.0000000 )


      isym =  7     120 deg rotation - cart. axis [1,1,-1]       

 cryst.   s( 7) = (     1          0         -1      )
                  (     0          0         -1      )
                  (     0          1         -1      )

 cart.    s( 7) = (  0.0000000  1.0000000  0.0000000 )
                  (  0.0000000  0.0000000 -1.0000000 )
                  ( -1.0000000  0.0000000  0.0000000 )


      isym =  8     120 deg rotation - cart. axis [1,-1,1]       

 cryst.   s( 8) = (     0         -1          0      )
                  (     1         -1          0      )
                  (     0         -1          1      )

 cart.    s( 8) = (  0.0000000 -1.0000000  0.0000000 )
                  (  0.0000000  0.0000000 -1.0000000 )
                  (  1.0000000  0.0000000  0.0000000 )


      isym =  9     120 deg rotation - cart. axis [1,1,1]        

 cryst.   s( 9) = (     0          0         -1      )
                  (     0          1         -1      )
                  (     1          0         -1      )

 cart.    s( 9) = (  0.0000000  0.0000000  1.0000000 )
                  (  1.0000000  0.0000000  0.0000000 )
                  (  0.0000000  1.0000000  0.0000000 )


      isym = 10     120 deg rotation - cart. axis [-1,1,-1]      

 cryst.   s(10) = (    -1          1          0      )
                  (    -1          0          0      )
                  (    -1          0          1      )

 cart.    s(10) = (  0.0000000  0.0000000  1.0000000 )
                  ( -1.0000000  0.0000000  0.0000000 )
                  (  0.0000000 -1.0000000  0.0000000 )


      isym = 11     120 deg rotation - cart. axis [1,-1,-1]      

 cryst.   s(11) = (     0          0          1      )
                  (     1          0          0      )
                  (     0          1          0      )

 cart.    s(11) = (  0.0000000  0.0000000 -1.0000000 )
                  ( -1.0000000  0.0000000  0.0000000 )
                  (  0.0000000  1.0000000  0.0000000 )


      isym = 12     120 deg rotation - cart. axis [-1,-1,1]      

 cryst.   s(12) = (     1         -1          0      )
                  (     0         -1          1      )
                  (     0         -1          0      )

 cart.    s(12) = (  0.0000000  0.0000000 -1.0000000 )
                  (  1.0000000  0.0000000  0.0000000 )
                  (  0.0000000 -1.0000000  0.0000000 )


      isym = 13     inv. 180 deg rotation - cart. axis [1,1,0]   

 cryst.   s(13) = (     0          1          0      )
                  (     1          0          0      )
                  (     0          0          1      )

 cart.    s(13) = (  0.0000000 -1.0000000  0.0000000 )
                  ( -1.0000000  0.0000000  0.0000000 )
                  (  0.0000000  0.0000000  1.0000000 )


      isym = 14     inv. 180 deg rotation - cart. axis [1,-1,0]  

 cryst.   s(14) = (     1          0         -1      )
                  (     0          1         -1      )
                  (     0          0         -1      )

 cart.    s(14) = (  0.0000000  1.0000000  0.0000000 )
                  (  1.0000000  0.0000000  0.0000000 )
                  (  0.0000000  0.0000000  1.0000000 )


      isym = 15     inv.  90 deg rotation - cart. axis [0,0,-1]  

 cryst.   s(15) = (     0         -1          0      )
                  (     0         -1          1      )
                  (     1         -1          0      )

 cart.    s(15) = (  0.0000000 -1.0000000  0.0000000 )
                  (  1.0000000  0.0000000  0.0000000 )
                  (  0.0000000  0.0000000 -1.0000000 )


      isym = 16     inv.  90 deg rotation - cart. axis [0,0,1]   

 cryst.   s(16) = (    -1          0          1      )
                  (    -1          0          0      )
                  (    -1          1          0      )

 cart.    s(16) = (  0.0000000  1.0000000  0.0000000 )
                  ( -1.0000000  0.0000000  0.0000000 )
                  (  0.0000000  0.0000000 -1.0000000 )


      isym = 17     inv. 180 deg rotation - cart. axis [1,0,1]   

 cryst.   s(17) = (     1          0          0      )
                  (     0          0          1      )
                  (     0          1          0      )

 cart.    s(17) = (  0.0000000  0.0000000 -1.0000000 )
                  (  0.0000000  1.0000000  0.0000000 )
                  ( -1.0000000  0.0000000  0.0000000 )


      isym = 18     inv. 180 deg rotation - cart. axis [-1,0,1]  

 cryst.   s(18) = (    -1          0          0      )
                  (    -1          1          0      )
                  (    -1          0          1      )

 cart.    s(18) = (  0.0000000  0.0000000  1.0000000 )
                  (  0.0000000  1.0000000  0.0000000 )
                  (  1.0000000  0.0000000  0.0000000 )


      isym = 19     inv.  90 deg rotation - cart. axis [0,1,0]   

 cryst.   s(19) = (     0         -1          1      )
                  (     1         -1          0      )
                  (     0         -1          0      )

 cart.    s(19) = (  0.0000000  0.0000000 -1.0000000 )
                  (  0.0000000 -1.0000000  0.0000000 )
                  (  1.0000000  0.0000000  0.0000000 )


      isym = 20     inv.  90 deg rotation - cart. axis [0,-1,0]  

 cryst.   s(20) = (     0          1         -1      )
                  (     0          0         -1      )
                  (     1          0         -1      )

 cart.    s(20) = (  0.0000000  0.0000000  1.0000000 )
                  (  0.0000000 -1.0000000  0.0000000 )
                  ( -1.0000000  0.0000000  0.0000000 )


      isym = 21     inv. 180 deg rotation - cart. axis [0,1,1]   

 cryst.   s(21) = (     1         -1          0      )
                  (     0         -1          0      )
                  (     0         -1          1      )

 cart.    s(21) = (  1.0000000  0.0000000  0.0000000 )
                  (  0.0000000  0.0000000 -1.0000000 )
                  (  0.0000000 -1.0000000  0.0000000 )


      isym = 22     inv. 180 deg rotation - cart. axis [0,1,-1]  

 cryst.   s(22) = (     0          0          1      )
                  (     0          1          0      )
                  (     1          0          0      )

 cart.    s(22) = (  1.0000000  0.0000000  0.0000000 )
                  (  0.0000000  0.0000000  1.0000000 )
                  (  0.0000000  1.0000000  0.0000000 )


      isym = 23     inv.  90 deg rotation - cart. axis [-1,0,0]  

 cryst.   s(23) = (     0          0         -1      )
                  (     1          0         -1      )
                  (     0          1         -1      )

 cart.    s(23) = ( -1.0000000  0.0000000  0.0000000 )
                  (  0.0000000  0.0000000 -1.0000000 )
                  (  0.0000000  1.0000000  0.0000000 )


      isym = 24     inv.  90 deg rotation - cart. axis [1,0,0]   

 cryst.   s(24) = (    -1          1          0      )
                  (    -1          0          1      )
                  (    -1          0          0      )

 cart.    s(24) = ( -1.0000000  0.0000000  0.0000000 )
                  (  0.0000000  0.0000000  1.0000000 )
                  (  0.0000000 -1.0000000  0.0000000 )


     This transformation sends q -> -q+G

      isym = 25     identity                                     

 cryst.   s(25) = (     1          0          0      )
                  (     0          1          0      )
                  (     0          0          1      )

 cart.    s(25) = (  1.0000000  0.0000000  0.0000000 )
                  (  0.0000000  1.0000000  0.0000000 )
                  (  0.0000000  0.0000000  1.0000000 )


     G cutoff = 1605.9547  (   2807 G-vectors)     FFT grid: ( 60, 60, 60)
     G cutoff = 1070.6365  (   1528 G-vectors)  smooth grid: ( 48, 48, 48)
     number of k points=   770
                       cart. coord. in units 2pi/alat
        k(    1) = (  -0.0250000   0.0250000   0.0250000), wk =   0.0005000
        k(    2) = (  -0.0750000   0.0750000  -0.0250000), wk =   0.0015000
        k(    3) = (  -0.1250000   0.1250000  -0.0750000), wk =   0.0015000
        k(    4) = (  -0.1750000   0.1750000  -0.1250000), wk =   0.0015000
        k(    5) = (  -0.2250000   0.2250000  -0.1750000), wk =   0.0015000
        k(    6) = (  -0.2750000   0.2750000  -0.2250000), wk =   0.0015000
        k(    7) = (  -0.3250000   0.3250000  -0.2750000), wk =   0.0015000
        k(    8) = (  -0.3750000   0.3750000  -0.3250000), wk =   0.0015000
        k(    9) = (  -0.4250000   0.4250000  -0.3750000), wk =   0.0015000
        k(   10) = (  -0.4750000   0.4750000  -0.4250000), wk =   0.0015000
        k(   11) = (   0.4750000  -0.4750000   0.5250000), wk =   0.0015000
        k(   12) = (   0.4250000  -0.4250000   0.4750000), wk =   0.0015000
        k(   13) = (   0.3750000  -0.3750000   0.4250000), wk =   0.0015000
        k(   14) = (   0.3250000  -0.3250000   0.3750000), wk =   0.0015000
        k(   15) = (   0.2750000  -0.2750000   0.3250000), wk =   0.0015000
        k(   16) = (   0.2250000  -0.2250000   0.2750000), wk =   0.0015000
        k(   17) = (   0.1750000  -0.1750000   0.2250000), wk =   0.0015000
        k(   18) = (   0.1250000  -0.1250000   0.1750000), wk =   0.0015000
        k(   19) = (   0.0750000  -0.0750000   0.1250000), wk =   0.0015000
        k(   20) = (   0.0250000  -0.0250000   0.0750000), wk =   0.0015000
        k(   21) = (  -0.0250000   0.1250000   0.0250000), wk =   0.0015000
        k(   22) = (  -0.0750000   0.1750000  -0.0250000), wk =   0.0030000
        k(   23) = (  -0.1250000   0.2250000  -0.0750000), wk =   0.0030000
        k(   24) = (  -0.1750000   0.2750000  -0.1250000), wk =   0.0030000
        k(   25) = (  -0.2250000   0.3250000  -0.1750000), wk =   0.0030000
        k(   26) = (  -0.2750000   0.3750000  -0.2250000), wk =   0.0030000
        k(   27) = (  -0.3250000   0.4250000  -0.2750000), wk =   0.0030000
        k(   28) = (  -0.3750000   0.4750000  -0.3250000), wk =   0.0030000
        k(   29) = (  -0.4250000   0.5250000  -0.3750000), wk =   0.0030000
        k(   30) = (   0.5250000  -0.4250000   0.5750000), wk =   0.0030000
        k(   31) = (   0.4750000  -0.3750000   0.5250000), wk =   0.0030000
        k(   32) = (   0.4250000  -0.3250000   0.4750000), wk =   0.0030000
        k(   33) = (   0.3750000  -0.2750000   0.4250000), wk =   0.0030000
        k(   34) = (   0.3250000  -0.2250000   0.3750000), wk =   0.0030000
        k(   35) = (   0.2750000  -0.1750000   0.3250000), wk =   0.0030000
        k(   36) = (   0.2250000  -0.1250000   0.2750000), wk =   0.0030000
        k(   37) = (   0.1750000  -0.0750000   0.2250000), wk =   0.0030000
        k(   38) = (   0.1250000  -0.0250000   0.1750000), wk =   0.0030000
        k(   39) = (   0.0750000   0.0250000   0.1250000), wk =   0.0030000
        k(   40) = (  -0.0250000   0.2250000   0.0250000), wk =   0.0015000
        k(   41) = (  -0.0750000   0.2750000  -0.0250000), wk =   0.0030000
        k(   42) = (  -0.1250000   0.3250000  -0.0750000), wk =   0.0030000
        k(   43) = (  -0.1750000   0.3750000  -0.1250000), wk =   0.0030000
        k(   44) = (  -0.2250000   0.4250000  -0.1750000), wk =   0.0030000
        k(   45) = (  -0.2750000   0.4750000  -0.2250000), wk =   0.0030000
        k(   46) = (  -0.3250000   0.5250000  -0.2750000), wk =   0.0030000
        k(   47) = (  -0.3750000   0.5750000  -0.3250000), wk =   0.0030000
        k(   48) = (   0.5750000  -0.3750000   0.6250000), wk =   0.0030000
        k(   49) = (   0.5250000  -0.3250000   0.5750000), wk =   0.0030000
        k(   50) = (   0.4750000  -0.2750000   0.5250000), wk =   0.0030000
        k(   51) = (   0.4250000  -0.2250000   0.4750000), wk =   0.0030000
        k(   52) = (   0.3750000  -0.1750000   0.4250000), wk =   0.0030000
        k(   53) = (   0.3250000  -0.1250000   0.3750000), wk =   0.0030000
        k(   54) = (   0.2750000  -0.0750000   0.3250000), wk =   0.0030000
        k(   55) = (   0.2250000  -0.0250000   0.2750000), wk =   0.0030000
        k(   56) = (   0.1750000   0.0250000   0.2250000), wk =   0.0030000
        k(   57) = (   0.1250000   0.0750000   0.1750000), wk =   0.0030000
        k(   58) = (  -0.0250000   0.3250000   0.0250000), wk =   0.0015000
        k(   59) = (  -0.0750000   0.3750000  -0.0250000), wk =   0.0030000
        k(   60) = (  -0.1250000   0.4250000  -0.0750000), wk =   0.0030000
        k(   61) = (  -0.1750000   0.4750000  -0.1250000), wk =   0.0030000
        k(   62) = (  -0.2250000   0.5250000  -0.1750000), wk =   0.0030000
        k(   63) = (  -0.2750000   0.5750000  -0.2250000), wk =   0.0030000
        k(   64) = (  -0.3250000   0.6250000  -0.2750000), wk =   0.0030000
        k(   65) = (   0.6250000  -0.3250000   0.6750000), wk =   0.0030000
        k(   66) = (   0.5750000  -0.2750000   0.6250000), wk =   0.0030000
        k(   67) = (   0.5250000  -0.2250000   0.5750000), wk =   0.0030000
        k(   68) = (   0.4750000  -0.1750000   0.5250000), wk =   0.0030000
        k(   69) = (   0.4250000  -0.1250000   0.4750000), wk =   0.0030000
        k(   70) = (   0.3750000  -0.0750000   0.4250000), wk =   0.0030000
        k(   71) = (   0.3250000  -0.0250000   0.3750000), wk =   0.0030000
        k(   72) = (   0.2750000   0.0250000   0.3250000), wk =   0.0030000
        k(   73) = (   0.2250000   0.0750000   0.2750000), wk =   0.0030000
        k(   74) = (   0.1750000   0.1250000   0.2250000), wk =   0.0030000
        k(   75) = (  -0.0250000   0.4250000   0.0250000), wk =   0.0015000
        k(   76) = (  -0.0750000   0.4750000  -0.0250000), wk =   0.0030000
        k(   77) = (  -0.1250000   0.5250000  -0.0750000), wk =   0.0030000
        k(   78) = (  -0.1750000   0.5750000  -0.1250000), wk =   0.0030000
        k(   79) = (  -0.2250000   0.6250000  -0.1750000), wk =   0.0030000
        k(   80) = (  -0.2750000   0.6750000  -0.2250000), wk =   0.0030000
        k(   81) = (   0.6750000  -0.2750000   0.7250000), wk =   0.0030000
        k(   82) = (   0.6250000  -0.2250000   0.6750000), wk =   0.0030000
        k(   83) = (   0.5750000  -0.1750000   0.6250000), wk =   0.0030000
        k(   84) = (   0.5250000  -0.1250000   0.5750000), wk =   0.0030000
        k(   85) = (   0.4750000  -0.0750000   0.5250000), wk =   0.0030000
        k(   86) = (   0.4250000  -0.0250000   0.4750000), wk =   0.0030000
        k(   87) = (   0.3750000   0.0250000   0.4250000), wk =   0.0030000
        k(   88) = (   0.3250000   0.0750000   0.3750000), wk =   0.0030000
        k(   89) = (   0.2750000   0.1250000   0.3250000), wk =   0.0030000
        k(   90) = (   0.2250000   0.1750000   0.2750000), wk =   0.0030000
        k(   91) = (  -0.0250000   0.5250000   0.0250000), wk =   0.0015000
        k(   92) = (  -0.0750000   0.5750000  -0.0250000), wk =   0.0030000
        k(   93) = (  -0.1250000   0.6250000  -0.0750000), wk =   0.0030000
        k(   94) = (  -0.1750000   0.6750000  -0.1250000), wk =   0.0030000
        k(   95) = (  -0.2250000   0.7250000  -0.1750000), wk =   0.0030000
        k(   96) = (   0.7250000  -0.2250000   0.7750000), wk =   0.0030000
        k(   97) = (   0.6750000  -0.1750000   0.7250000), wk =   0.0030000
        k(   98) = (   0.6250000  -0.1250000   0.6750000), wk =   0.0030000
        k(   99) = (   0.5750000  -0.0750000   0.6250000), wk =   0.0030000
        k(  100) = (   0.5250000  -0.0250000   0.5750000), wk =   0.0030000
        k(  101) = (   0.4750000   0.0250000   0.5250000), wk =   0.0030000
        k(  102) = (   0.4250000   0.0750000   0.4750000), wk =   0.0030000
        k(  103) = (   0.3750000   0.1250000   0.4250000), wk =   0.0030000
        k(  104) = (   0.3250000   0.1750000   0.3750000), wk =   0.0030000
        k(  105) = (   0.2750000   0.2250000   0.3250000), wk =   0.0030000
        k(  106) = (  -0.0250000   0.6250000   0.0250000), wk =   0.0015000
        k(  107) = (  -0.0750000   0.6750000  -0.0250000), wk =   0.0030000
        k(  108) = (  -0.1250000   0.7250000  -0.0750000), wk =   0.0030000
        k(  109) = (  -0.1750000   0.7750000  -0.1250000), wk =   0.0030000
        k(  110) = (   0.7750000  -0.1750000   0.8250000), wk =   0.0030000
        k(  111) = (   0.7250000  -0.1250000   0.7750000), wk =   0.0030000
        k(  112) = (   0.6750000  -0.0750000   0.7250000), wk =   0.0030000
        k(  113) = (   0.6250000  -0.0250000   0.6750000), wk =   0.0030000
        k(  114) = (   0.5750000   0.0250000   0.6250000), wk =   0.0030000
        k(  115) = (   0.5250000   0.0750000   0.5750000), wk =   0.0030000
        k(  116) = (   0.4750000   0.1250000   0.5250000), wk =   0.0030000
        k(  117) = (   0.4250000   0.1750000   0.4750000), wk =   0.0030000
        k(  118) = (   0.3750000   0.2250000   0.4250000), wk =   0.0030000
        k(  119) = (   0.3250000   0.2750000   0.3750000), wk =   0.0030000
        k(  120) = (  -0.0250000   0.7250000   0.0250000), wk =   0.0015000
        k(  121) = (  -0.0750000   0.7750000  -0.0250000), wk =   0.0030000
        k(  122) = (  -0.1250000   0.8250000  -0.0750000), wk =   0.0030000
        k(  123) = (   0.8250000  -0.1250000   0.8750000), wk =   0.0030000
        k(  124) = (   0.7750000  -0.0750000   0.8250000), wk =   0.0030000
        k(  125) = (   0.7250000  -0.0250000   0.7750000), wk =   0.0030000
        k(  126) = (   0.6750000   0.0250000   0.7250000), wk =   0.0030000
        k(  127) = (   0.6250000   0.0750000   0.6750000), wk =   0.0030000
        k(  128) = (   0.5750000   0.1250000   0.6250000), wk =   0.0030000
        k(  129) = (   0.5250000   0.1750000   0.5750000), wk =   0.0030000
        k(  130) = (   0.4750000   0.2250000   0.5250000), wk =   0.0030000
        k(  131) = (   0.4250000   0.2750000   0.4750000), wk =   0.0030000
        k(  132) = (   0.3750000   0.3250000   0.4250000), wk =   0.0030000
        k(  133) = (  -0.0250000   0.8250000   0.0250000), wk =   0.0015000
        k(  134) = (  -0.0750000   0.8750000  -0.0250000), wk =   0.0030000
        k(  135) = (   0.8750000  -0.0750000   0.9250000), wk =   0.0030000
        k(  136) = (   0.8250000  -0.0250000   0.8750000), wk =   0.0030000
        k(  137) = (   0.7750000   0.0250000   0.8250000), wk =   0.0030000
        k(  138) = (   0.7250000   0.0750000   0.7750000), wk =   0.0030000
        k(  139) = (   0.6750000   0.1250000   0.7250000), wk =   0.0030000
        k(  140) = (   0.6250000   0.1750000   0.6750000), wk =   0.0030000
        k(  141) = (   0.5750000   0.2250000   0.6250000), wk =   0.0030000
        k(  142) = (   0.5250000   0.2750000   0.5750000), wk =   0.0030000
        k(  143) = (   0.4750000   0.3250000   0.5250000), wk =   0.0030000
        k(  144) = (   0.4250000   0.3750000   0.4750000), wk =   0.0030000
        k(  145) = (  -0.0250000   0.9250000   0.0250000), wk =   0.0015000
        k(  146) = (   0.9250000  -0.0250000   0.9750000), wk =   0.0030000
        k(  147) = (   0.8750000   0.0250000   0.9250000), wk =   0.0030000
        k(  148) = (   0.8250000   0.0750000   0.8750000), wk =   0.0030000
        k(  149) = (   0.7750000   0.1250000   0.8250000), wk =   0.0030000
        k(  150) = (   0.7250000   0.1750000   0.7750000), wk =   0.0030000
        k(  151) = (   0.6750000   0.2250000   0.7250000), wk =   0.0030000
        k(  152) = (   0.6250000   0.2750000   0.6750000), wk =   0.0030000
        k(  153) = (   0.5750000   0.3250000   0.6250000), wk =   0.0030000
        k(  154) = (   0.5250000   0.3750000   0.5750000), wk =   0.0030000
        k(  155) = (   0.4750000   0.4250000   0.5250000), wk =   0.0030000
        k(  156) = (  -0.0250000  -0.9750000   0.0250000), wk =   0.0015000
        k(  157) = (  -0.0750000  -0.9250000  -0.0250000), wk =   0.0030000
        k(  158) = (  -0.1250000  -0.8750000  -0.0750000), wk =   0.0030000
        k(  159) = (  -0.1750000  -0.8250000  -0.1250000), wk =   0.0030000
        k(  160) = (  -0.2250000  -0.7750000  -0.1750000), wk =   0.0030000
        k(  161) = (  -0.2750000  -0.7250000  -0.2250000), wk =   0.0030000
        k(  162) = (  -0.3250000  -0.6750000  -0.2750000), wk =   0.0030000
        k(  163) = (  -0.3750000  -0.6250000  -0.3250000), wk =   0.0030000
        k(  164) = (  -0.4250000  -0.5750000  -0.3750000), wk =   0.0030000
        k(  165) = (  -0.0250000  -0.8750000   0.0250000), wk =   0.0015000
        k(  166) = (  -0.0750000  -0.8250000  -0.0250000), wk =   0.0030000
        k(  167) = (  -0.1250000  -0.7750000  -0.0750000), wk =   0.0030000
        k(  168) = (  -0.1750000  -0.7250000  -0.1250000), wk =   0.0030000
        k(  169) = (  -0.2250000  -0.6750000  -0.1750000), wk =   0.0030000
        k(  170) = (  -0.2750000  -0.6250000  -0.2250000), wk =   0.0030000
        k(  171) = (  -0.3250000  -0.5750000  -0.2750000), wk =   0.0030000
        k(  172) = (  -0.3750000  -0.5250000  -0.3250000), wk =   0.0030000
        k(  173) = (  -0.0250000  -0.7750000   0.0250000), wk =   0.0015000
        k(  174) = (  -0.0750000  -0.7250000  -0.0250000), wk =   0.0030000
        k(  175) = (  -0.1250000  -0.6750000  -0.0750000), wk =   0.0030000
        k(  176) = (  -0.1750000  -0.6250000  -0.1250000), wk =   0.0030000
        k(  177) = (  -0.2250000  -0.5750000  -0.1750000), wk =   0.0030000
        k(  178) = (  -0.2750000  -0.5250000  -0.2250000), wk =   0.0030000
        k(  179) = (  -0.3250000  -0.4750000  -0.2750000), wk =   0.0030000
        k(  180) = (  -0.0250000  -0.6750000   0.0250000), wk =   0.0015000
        k(  181) = (  -0.0750000  -0.6250000  -0.0250000), wk =   0.0030000
        k(  182) = (  -0.1250000  -0.5750000  -0.0750000), wk =   0.0030000
        k(  183) = (  -0.1750000  -0.5250000  -0.1250000), wk =   0.0030000
        k(  184) = (  -0.2250000  -0.4750000  -0.1750000), wk =   0.0030000
        k(  185) = (  -0.2750000  -0.4250000  -0.2250000), wk =   0.0030000
        k(  186) = (  -0.0250000  -0.5750000   0.0250000), wk =   0.0015000
        k(  187) = (  -0.0750000  -0.5250000  -0.0250000), wk =   0.0030000
        k(  188) = (  -0.1250000  -0.4750000  -0.0750000), wk =   0.0030000
        k(  189) = (  -0.1750000  -0.4250000  -0.1250000), wk =   0.0030000
        k(  190) = (  -0.2250000  -0.3750000  -0.1750000), wk =   0.0030000
        k(  191) = (  -0.0250000  -0.4750000   0.0250000), wk =   0.0015000
        k(  192) = (  -0.0750000  -0.4250000  -0.0250000), wk =   0.0030000
        k(  193) = (  -0.1250000  -0.3750000  -0.0750000), wk =   0.0030000
        k(  194) = (  -0.1750000  -0.3250000  -0.1250000), wk =   0.0030000
        k(  195) = (  -0.0250000  -0.3750000   0.0250000), wk =   0.0015000
        k(  196) = (  -0.0750000  -0.3250000  -0.0250000), wk =   0.0030000
        k(  197) = (  -0.1250000  -0.2750000  -0.0750000), wk =   0.0030000
        k(  198) = (  -0.0250000  -0.2750000   0.0250000), wk =   0.0015000
        k(  199) = (  -0.0750000  -0.2250000  -0.0250000), wk =   0.0030000
        k(  200) = (  -0.0250000  -0.1750000   0.0250000), wk =   0.0015000
        k(  201) = (  -0.0750000   0.0750000   0.0750000), wk =   0.0005000
        k(  202) = (  -0.1250000   0.1250000   0.0250000), wk =   0.0015000
        k(  203) = (  -0.1750000   0.1750000  -0.0250000), wk =   0.0015000
        k(  204) = (  -0.2250000   0.2250000  -0.0750000), wk =   0.0015000
        k(  205) = (  -0.2750000   0.2750000  -0.1250000), wk =   0.0015000
        k(  206) = (  -0.3250000   0.3250000  -0.1750000), wk =   0.0015000
        k(  207) = (  -0.3750000   0.3750000  -0.2250000), wk =   0.0015000
        k(  208) = (  -0.4250000   0.4250000  -0.2750000), wk =   0.0015000
        k(  209) = (  -0.4750000   0.4750000  -0.3250000), wk =   0.0015000
        k(  210) = (   0.4750000  -0.4750000   0.6250000), wk =   0.0015000
        k(  211) = (   0.4250000  -0.4250000   0.5750000), wk =   0.0015000
        k(  212) = (   0.3750000  -0.3750000   0.5250000), wk =   0.0015000
        k(  213) = (   0.3250000  -0.3250000   0.4750000), wk =   0.0015000
        k(  214) = (   0.2750000  -0.2750000   0.4250000), wk =   0.0015000
        k(  215) = (   0.2250000  -0.2250000   0.3750000), wk =   0.0015000
        k(  216) = (   0.1750000  -0.1750000   0.3250000), wk =   0.0015000
        k(  217) = (   0.1250000  -0.1250000   0.2750000), wk =   0.0015000
        k(  218) = (   0.0750000  -0.0750000   0.2250000), wk =   0.0015000
        k(  219) = (  -0.0750000   0.1750000   0.0750000), wk =   0.0015000
        k(  220) = (  -0.1250000   0.2250000   0.0250000), wk =   0.0030000
        k(  221) = (  -0.1750000   0.2750000  -0.0250000), wk =   0.0030000
        k(  222) = (  -0.2250000   0.3250000  -0.0750000), wk =   0.0030000
        k(  223) = (  -0.2750000   0.3750000  -0.1250000), wk =   0.0030000
        k(  224) = (  -0.3250000   0.4250000  -0.1750000), wk =   0.0030000
        k(  225) = (  -0.3750000   0.4750000  -0.2250000), wk =   0.0030000
        k(  226) = (  -0.4250000   0.5250000  -0.2750000), wk =   0.0030000
        k(  227) = (   0.5250000  -0.4250000   0.6750000), wk =   0.0030000
        k(  228) = (   0.4750000  -0.3750000   0.6250000), wk =   0.0030000
        k(  229) = (   0.4250000  -0.3250000   0.5750000), wk =   0.0030000
        k(  230) = (   0.3750000  -0.2750000   0.5250000), wk =   0.0030000
        k(  231) = (   0.3250000  -0.2250000   0.4750000), wk =   0.0030000
        k(  232) = (   0.2750000  -0.1750000   0.4250000), wk =   0.0030000
        k(  233) = (   0.2250000  -0.1250000   0.3750000), wk =   0.0030000
        k(  234) = (   0.1750000  -0.0750000   0.3250000), wk =   0.0030000
        k(  235) = (   0.1250000  -0.0250000   0.2750000), wk =   0.0030000
        k(  236) = (  -0.0750000   0.2750000   0.0750000), wk =   0.0015000
        k(  237) = (  -0.1250000   0.3250000   0.0250000), wk =   0.0030000
        k(  238) = (  -0.1750000   0.3750000  -0.0250000), wk =   0.0030000
        k(  239) = (  -0.2250000   0.4250000  -0.0750000), wk =   0.0030000
        k(  240) = (  -0.2750000   0.4750000  -0.1250000), wk =   0.0030000
        k(  241) = (  -0.3250000   0.5250000  -0.1750000), wk =   0.0030000
        k(  242) = (  -0.3750000   0.5750000  -0.2250000), wk =   0.0030000
        k(  243) = (   0.5750000  -0.3750000   0.7250000), wk =   0.0030000
        k(  244) = (   0.5250000  -0.3250000   0.6750000), wk =   0.0030000
        k(  245) = (   0.4750000  -0.2750000   0.6250000), wk =   0.0030000
        k(  246) = (   0.4250000  -0.2250000   0.5750000), wk =   0.0030000
        k(  247) = (   0.3750000  -0.1750000   0.5250000), wk =   0.0030000
        k(  248) = (   0.3250000  -0.1250000   0.4750000), wk =   0.0030000
        k(  249) = (   0.2750000  -0.0750000   0.4250000), wk =   0.0030000
        k(  250) = (   0.2250000  -0.0250000   0.3750000), wk =   0.0030000
        k(  251) = (   0.1750000   0.0250000   0.3250000), wk =   0.0030000
        k(  252) = (  -0.0750000   0.3750000   0.0750000), wk =   0.0015000
        k(  253) = (  -0.1250000   0.4250000   0.0250000), wk =   0.0030000
        k(  254) = (  -0.1750000   0.4750000  -0.0250000), wk =   0.0030000
        k(  255) = (  -0.2250000   0.5250000  -0.0750000), wk =   0.0030000
        k(  256) = (  -0.2750000   0.5750000  -0.1250000), wk =   0.0030000
        k(  257) = (  -0.3250000   0.6250000  -0.1750000), wk =   0.0030000
        k(  258) = (   0.6250000  -0.3250000   0.7750000), wk =   0.0030000
        k(  259) = (   0.5750000  -0.2750000   0.7250000), wk =   0.0030000
        k(  260) = (   0.5250000  -0.2250000   0.6750000), wk =   0.0030000
        k(  261) = (   0.4750000  -0.1750000   0.6250000), wk =   0.0030000
        k(  262) = (   0.4250000  -0.1250000   0.5750000), wk =   0.0030000
        k(  263) = (   0.3750000  -0.0750000   0.5250000), wk =   0.0030000
        k(  264) = (   0.3250000  -0.0250000   0.4750000), wk =   0.0030000
        k(  265) = (   0.2750000   0.0250000   0.4250000), wk =   0.0030000
        k(  266) = (   0.2250000   0.0750000   0.3750000), wk =   0.0030000
        k(  267) = (  -0.0750000   0.4750000   0.0750000), wk =   0.0015000
        k(  268) = (  -0.1250000   0.5250000   0.0250000), wk =   0.0030000
        k(  269) = (  -0.1750000   0.5750000  -0.0250000), wk =   0.0030000
        k(  270) = (  -0.2250000   0.6250000  -0.0750000), wk =   0.0030000
        k(  271) = (  -0.2750000   0.6750000  -0.1250000), wk =   0.0030000
        k(  272) = (   0.6750000  -0.2750000   0.8250000), wk =   0.0030000
        k(  273) = (   0.6250000  -0.2250000   0.7750000), wk =   0.0030000
        k(  274) = (   0.5750000  -0.1750000   0.7250000), wk =   0.0030000
        k(  275) = (   0.5250000  -0.1250000   0.6750000), wk =   0.0030000
        k(  276) = (   0.4750000  -0.0750000   0.6250000), wk =   0.0030000
        k(  277) = (   0.4250000  -0.0250000   0.5750000), wk =   0.0030000
        k(  278) = (   0.3750000   0.0250000   0.5250000), wk =   0.0030000
        k(  279) = (   0.3250000   0.0750000   0.4750000), wk =   0.0030000
        k(  280) = (   0.2750000   0.1250000   0.4250000), wk =   0.0030000
        k(  281) = (  -0.0750000   0.5750000   0.0750000), wk =   0.0015000
        k(  282) = (  -0.1250000   0.6250000   0.0250000), wk =   0.0030000
        k(  283) = (  -0.1750000   0.6750000  -0.0250000), wk =   0.0030000
        k(  284) = (  -0.2250000   0.7250000  -0.0750000), wk =   0.0030000
        k(  285) = (   0.7250000  -0.2250000   0.8750000), wk =   0.0030000
        k(  286) = (   0.6750000  -0.1750000   0.8250000), wk =   0.0030000
        k(  287) = (   0.6250000  -0.1250000   0.7750000), wk =   0.0030000
        k(  288) = (   0.5750000  -0.0750000   0.7250000), wk =   0.0030000
        k(  289) = (   0.5250000  -0.0250000   0.6750000), wk =   0.0030000
        k(  290) = (   0.4750000   0.0250000   0.6250000), wk =   0.0030000
        k(  291) = (   0.4250000   0.0750000   0.5750000), wk =   0.0030000
        k(  292) = (   0.3750000   0.1250000   0.5250000), wk =   0.0030000
        k(  293) = (   0.3250000   0.1750000   0.4750000), wk =   0.0030000
        k(  294) = (  -0.0750000   0.6750000   0.0750000), wk =   0.0015000
        k(  295) = (  -0.1250000   0.7250000   0.0250000), wk =   0.0030000
        k(  296) = (  -0.1750000   0.7750000  -0.0250000), wk =   0.0030000
        k(  297) = (   0.7750000  -0.1750000   0.9250000), wk =   0.0030000
        k(  298) = (   0.7250000  -0.1250000   0.8750000), wk =   0.0030000
        k(  299) = (   0.6750000  -0.0750000   0.8250000), wk =   0.0030000
        k(  300) = (   0.6250000  -0.0250000   0.7750000), wk =   0.0030000
        k(  301) = (   0.5750000   0.0250000   0.7250000), wk =   0.0030000
        k(  302) = (   0.5250000   0.0750000   0.6750000), wk =   0.0030000
        k(  303) = (   0.4750000   0.1250000   0.6250000), wk =   0.0030000
        k(  304) = (   0.4250000   0.1750000   0.5750000), wk =   0.0030000
        k(  305) = (   0.3750000   0.2250000   0.5250000), wk =   0.0030000
        k(  306) = (  -0.0750000   0.7750000   0.0750000), wk =   0.0015000
        k(  307) = (  -0.1250000   0.8250000   0.0250000), wk =   0.0030000
        k(  308) = (   0.8250000  -0.1250000   0.9750000), wk =   0.0030000
        k(  309) = (   0.7750000  -0.0750000   0.9250000), wk =   0.0030000
        k(  310) = (   0.7250000  -0.0250000   0.8750000), wk =   0.0030000
        k(  311) = (   0.6750000   0.0250000   0.8250000), wk =   0.0030000
        k(  312) = (   0.6250000   0.0750000   0.7750000), wk =   0.0030000
        k(  313) = (   0.5750000   0.1250000   0.7250000), wk =   0.0030000
        k(  314) = (   0.5250000   0.1750000   0.6750000), wk =   0.0030000
        k(  315) = (   0.4750000   0.2250000   0.6250000), wk =   0.0030000
        k(  316) = (   0.4250000   0.2750000   0.5750000), wk =   0.0030000
        k(  317) = (  -0.0750000   0.8750000   0.0750000), wk =   0.0015000
        k(  318) = (   0.8750000  -0.0750000   1.0250000), wk =   0.0030000
        k(  319) = (   0.8250000  -0.0250000   0.9750000), wk =   0.0030000
        k(  320) = (   0.7750000   0.0250000   0.9250000), wk =   0.0030000
        k(  321) = (   0.7250000   0.0750000   0.8750000), wk =   0.0030000
        k(  322) = (   0.6750000   0.1250000   0.8250000), wk =   0.0030000
        k(  323) = (   0.6250000   0.1750000   0.7750000), wk =   0.0030000
        k(  324) = (   0.5750000   0.2250000   0.7250000), wk =   0.0030000
        k(  325) = (   0.5250000   0.2750000   0.6750000), wk =   0.0030000
        k(  326) = (   0.4750000   0.3250000   0.6250000), wk =   0.0030000
        k(  327) = (  -0.0750000  -1.0250000   0.0750000), wk =   0.0015000
        k(  328) = (  -0.1250000  -0.9750000   0.0250000), wk =   0.0030000
        k(  329) = (  -0.1750000  -0.9250000  -0.0250000), wk =   0.0030000
        k(  330) = (  -0.2250000  -0.8750000  -0.0750000), wk =   0.0030000
        k(  331) = (  -0.2750000  -0.8250000  -0.1250000), wk =   0.0030000
        k(  332) = (  -0.3250000  -0.7750000  -0.1750000), wk =   0.0030000
        k(  333) = (  -0.3750000  -0.7250000  -0.2250000), wk =   0.0030000
        k(  334) = (  -0.4250000  -0.6750000  -0.2750000), wk =   0.0030000
        k(  335) = (  -0.0750000  -0.9250000   0.0750000), wk =   0.0015000
        k(  336) = (  -0.1250000  -0.8750000   0.0250000), wk =   0.0030000
        k(  337) = (  -0.1750000  -0.8250000  -0.0250000), wk =   0.0030000
        k(  338) = (  -0.2250000  -0.7750000  -0.0750000), wk =   0.0030000
        k(  339) = (  -0.2750000  -0.7250000  -0.1250000), wk =   0.0030000
        k(  340) = (  -0.3250000  -0.6750000  -0.1750000), wk =   0.0030000
        k(  341) = (  -0.3750000  -0.6250000  -0.2250000), wk =   0.0030000
        k(  342) = (  -0.0750000  -0.8250000   0.0750000), wk =   0.0015000
        k(  343) = (  -0.1250000  -0.7750000   0.0250000), wk =   0.0030000
        k(  344) = (  -0.1750000  -0.7250000  -0.0250000), wk =   0.0030000
        k(  345) = (  -0.2250000  -0.6750000  -0.0750000), wk =   0.0030000
        k(  346) = (  -0.2750000  -0.6250000  -0.1250000), wk =   0.0030000
        k(  347) = (  -0.3250000  -0.5750000  -0.1750000), wk =   0.0030000
        k(  348) = (  -0.0750000  -0.7250000   0.0750000), wk =   0.0015000
        k(  349) = (  -0.1250000  -0.6750000   0.0250000), wk =   0.0030000
        k(  350) = (  -0.1750000  -0.6250000  -0.0250000), wk =   0.0030000
        k(  351) = (  -0.2250000  -0.5750000  -0.0750000), wk =   0.0030000
        k(  352) = (  -0.2750000  -0.5250000  -0.1250000), wk =   0.0030000
        k(  353) = (  -0.0750000  -0.6250000   0.0750000), wk =   0.0015000
        k(  354) = (  -0.1250000  -0.5750000   0.0250000), wk =   0.0030000
        k(  355) = (  -0.1750000  -0.5250000  -0.0250000), wk =   0.0030000
        k(  356) = (  -0.2250000  -0.4750000  -0.0750000), wk =   0.0030000
        k(  357) = (  -0.0750000  -0.5250000   0.0750000), wk =   0.0015000
        k(  358) = (  -0.1250000  -0.4750000   0.0250000), wk =   0.0030000
        k(  359) = (  -0.1750000  -0.4250000  -0.0250000), wk =   0.0030000
        k(  360) = (  -0.0750000  -0.4250000   0.0750000), wk =   0.0015000
        k(  361) = (  -0.1250000  -0.3750000   0.0250000), wk =   0.0030000
        k(  362) = (  -0.0750000  -0.3250000   0.0750000), wk =   0.0015000
        k(  363) = (  -0.1250000   0.1250000   0.1250000), wk =   0.0005000
        k(  364) = (  -0.1750000   0.1750000   0.0750000), wk =   0.0015000
        k(  365) = (  -0.2250000   0.2250000   0.0250000), wk =   0.0015000
        k(  366) = (  -0.2750000   0.2750000  -0.0250000), wk =   0.0015000
        k(  367) = (  -0.3250000   0.3250000  -0.0750000), wk =   0.0015000
        k(  368) = (  -0.3750000   0.3750000  -0.1250000), wk =   0.0015000
        k(  369) = (  -0.4250000   0.4250000  -0.1750000), wk =   0.0015000
        k(  370) = (  -0.4750000   0.4750000  -0.2250000), wk =   0.0015000
        k(  371) = (   0.4750000  -0.4750000   0.7250000), wk =   0.0015000
        k(  372) = (   0.4250000  -0.4250000   0.6750000), wk =   0.0015000
        k(  373) = (   0.3750000  -0.3750000   0.6250000), wk =   0.0015000
        k(  374) = (   0.3250000  -0.3250000   0.5750000), wk =   0.0015000
        k(  375) = (   0.2750000  -0.2750000   0.5250000), wk =   0.0015000
        k(  376) = (   0.2250000  -0.2250000   0.4750000), wk =   0.0015000
        k(  377) = (   0.1750000  -0.1750000   0.4250000), wk =   0.0015000
        k(  378) = (   0.1250000  -0.1250000   0.3750000), wk =   0.0015000
        k(  379) = (  -0.1250000   0.2250000   0.1250000), wk =   0.0015000
        k(  380) = (  -0.1750000   0.2750000   0.0750000), wk =   0.0030000
        k(  381) = (  -0.2250000   0.3250000   0.0250000), wk =   0.0030000
        k(  382) = (  -0.2750000   0.3750000  -0.0250000), wk =   0.0030000
        k(  383) = (  -0.3250000   0.4250000  -0.0750000), wk =   0.0030000
        k(  384) = (  -0.3750000   0.4750000  -0.1250000), wk =   0.0030000
        k(  385) = (  -0.4250000   0.5250000  -0.1750000), wk =   0.0030000
        k(  386) = (   0.5250000  -0.4250000   0.7750000), wk =   0.0030000
        k(  387) = (   0.4750000  -0.3750000   0.7250000), wk =   0.0030000
        k(  388) = (   0.4250000  -0.3250000   0.6750000), wk =   0.0030000
        k(  389) = (   0.3750000  -0.2750000   0.6250000), wk =   0.0030000
        k(  390) = (   0.3250000  -0.2250000   0.5750000), wk =   0.0030000
        k(  391) = (   0.2750000  -0.1750000   0.5250000), wk =   0.0030000
        k(  392) = (   0.2250000  -0.1250000   0.4750000), wk =   0.0030000
        k(  393) = (   0.1750000  -0.0750000   0.4250000), wk =   0.0030000
        k(  394) = (  -0.1250000   0.3250000   0.1250000), wk =   0.0015000
        k(  395) = (  -0.1750000   0.3750000   0.0750000), wk =   0.0030000
        k(  396) = (  -0.2250000   0.4250000   0.0250000), wk =   0.0030000
        k(  397) = (  -0.2750000   0.4750000  -0.0250000), wk =   0.0030000
        k(  398) = (  -0.3250000   0.5250000  -0.0750000), wk =   0.0030000
        k(  399) = (  -0.3750000   0.5750000  -0.1250000), wk =   0.0030000
        k(  400) = (   0.5750000  -0.3750000   0.8250000), wk =   0.0030000
        k(  401) = (   0.5250000  -0.3250000   0.7750000), wk =   0.0030000
        k(  402) = (   0.4750000  -0.2750000   0.7250000), wk =   0.0030000
        k(  403) = (   0.4250000  -0.2250000   0.6750000), wk =   0.0030000
        k(  404) = (   0.3750000  -0.1750000   0.6250000), wk =   0.0030000
        k(  405) = (   0.3250000  -0.1250000   0.5750000), wk =   0.0030000
        k(  406) = (   0.2750000  -0.0750000   0.5250000), wk =   0.0030000
        k(  407) = (   0.2250000  -0.0250000   0.4750000), wk =   0.0030000
        k(  408) = (  -0.1250000   0.4250000   0.1250000), wk =   0.0015000
        k(  409) = (  -0.1750000   0.4750000   0.0750000), wk =   0.0030000
        k(  410) = (  -0.2250000   0.5250000   0.0250000), wk =   0.0030000
        k(  411) = (  -0.2750000   0.5750000  -0.0250000), wk =   0.0030000
        k(  412) = (  -0.3250000   0.6250000  -0.0750000), wk =   0.0030000
        k(  413) = (   0.6250000  -0.3250000   0.8750000), wk =   0.0030000
        k(  414) = (   0.5750000  -0.2750000   0.8250000), wk =   0.0030000
        k(  415) = (   0.5250000  -0.2250000   0.7750000), wk =   0.0030000
        k(  416) = (   0.4750000  -0.1750000   0.7250000), wk =   0.0030000
        k(  417) = (   0.4250000  -0.1250000   0.6750000), wk =   0.0030000
        k(  418) = (   0.3750000  -0.0750000   0.6250000), wk =   0.0030000
        k(  419) = (   0.3250000  -0.0250000   0.5750000), wk =   0.0030000
        k(  420) = (   0.2750000   0.0250000   0.5250000), wk =   0.0030000
        k(  421) = (  -0.1250000   0.5250000   0.1250000), wk =   0.0015000
        k(  422) = (  -0.1750000   0.5750000   0.0750000), wk =   0.0030000
        k(  423) = (  -0.2250000   0.6250000   0.0250000), wk =   0.0030000
        k(  424) = (  -0.2750000   0.6750000  -0.0250000), wk =   0.0030000
        k(  425) = (   0.6750000  -0.2750000   0.9250000), wk =   0.0030000
        k(  426) = (   0.6250000  -0.2250000   0.8750000), wk =   0.0030000
        k(  427) = (   0.5750000  -0.1750000   0.8250000), wk =   0.0030000
        k(  428) = (   0.5250000  -0.1250000   0.7750000), wk =   0.0030000
        k(  429) = (   0.4750000  -0.0750000   0.7250000), wk =   0.0030000
        k(  430) = (   0.4250000  -0.0250000   0.6750000), wk =   0.0030000
        k(  431) = (   0.3750000   0.0250000   0.6250000), wk =   0.0030000
        k(  432) = (   0.3250000   0.0750000   0.5750000), wk =   0.0030000
        k(  433) = (  -0.1250000   0.6250000   0.1250000), wk =   0.0015000
        k(  434) = (  -0.1750000   0.6750000   0.0750000), wk =   0.0030000
        k(  435) = (  -0.2250000   0.7250000   0.0250000), wk =   0.0030000
        k(  436) = (   0.7250000  -0.2250000   0.9750000), wk =   0.0030000
        k(  437) = (   0.6750000  -0.1750000   0.9250000), wk =   0.0030000
        k(  438) = (   0.6250000  -0.1250000   0.8750000), wk =   0.0030000
        k(  439) = (   0.5750000  -0.0750000   0.8250000), wk =   0.0030000
        k(  440) = (   0.5250000  -0.0250000   0.7750000), wk =   0.0030000
        k(  441) = (   0.4750000   0.0250000   0.7250000), wk =   0.0030000
        k(  442) = (   0.4250000   0.0750000   0.6750000), wk =   0.0030000
        k(  443) = (   0.3750000   0.1250000   0.6250000), wk =   0.0030000
        k(  444) = (  -0.1250000   0.7250000   0.1250000), wk =   0.0015000
        k(  445) = (  -0.1750000   0.7750000   0.0750000), wk =   0.0030000
        k(  446) = (   0.7750000  -0.1750000   1.0250000), wk =   0.0030000
        k(  447) = (   0.7250000  -0.1250000   0.9750000), wk =   0.0030000
        k(  448) = (   0.6750000  -0.0750000   0.9250000), wk =   0.0030000
        k(  449) = (   0.6250000  -0.0250000   0.8750000), wk =   0.0030000
        k(  450) = (   0.5750000   0.0250000   0.8250000), wk =   0.0030000
        k(  451) = (   0.5250000   0.0750000   0.7750000), wk =   0.0030000
        k(  452) = (   0.4750000   0.1250000   0.7250000), wk =   0.0030000
        k(  453) = (   0.4250000   0.1750000   0.6750000), wk =   0.0030000
        k(  454) = (  -0.1250000   0.8250000   0.1250000), wk =   0.0015000
        k(  455) = (   0.8250000  -0.1250000   1.0750000), wk =   0.0030000
        k(  456) = (   0.7750000  -0.0750000   1.0250000), wk =   0.0030000
        k(  457) = (   0.7250000  -0.0250000   0.9750000), wk =   0.0030000
        k(  458) = (   0.6750000   0.0250000   0.9250000), wk =   0.0030000
        k(  459) = (   0.6250000   0.0750000   0.8750000), wk =   0.0030000
        k(  460) = (   0.5750000   0.1250000   0.8250000), wk =   0.0030000
        k(  461) = (   0.5250000   0.1750000   0.7750000), wk =   0.0030000
        k(  462) = (   0.4750000   0.2250000   0.7250000), wk =   0.0030000
        k(  463) = (  -0.1250000  -1.0750000   0.1250000), wk =   0.0015000
        k(  464) = (  -0.1750000  -1.0250000   0.0750000), wk =   0.0030000
        k(  465) = (  -0.2250000  -0.9750000   0.0250000), wk =   0.0030000
        k(  466) = (  -0.2750000  -0.9250000  -0.0250000), wk =   0.0030000
        k(  467) = (  -0.3250000  -0.8750000  -0.0750000), wk =   0.0030000
        k(  468) = (  -0.3750000  -0.8250000  -0.1250000), wk =   0.0030000
        k(  469) = (  -0.4250000  -0.7750000  -0.1750000), wk =   0.0030000
        k(  470) = (  -0.1250000  -0.9750000   0.1250000), wk =   0.0015000
        k(  471) = (  -0.1750000  -0.9250000   0.0750000), wk =   0.0030000
        k(  472) = (  -0.2250000  -0.8750000   0.0250000), wk =   0.0030000
        k(  473) = (  -0.2750000  -0.8250000  -0.0250000), wk =   0.0030000
        k(  474) = (  -0.3250000  -0.7750000  -0.0750000), wk =   0.0030000
        k(  475) = (  -0.3750000  -0.7250000  -0.1250000), wk =   0.0030000
        k(  476) = (  -0.1250000  -0.8750000   0.1250000), wk =   0.0015000
        k(  477) = (  -0.1750000  -0.8250000   0.0750000), wk =   0.0030000
        k(  478) = (  -0.2250000  -0.7750000   0.0250000), wk =   0.0030000
        k(  479) = (  -0.2750000  -0.7250000  -0.0250000), wk =   0.0030000
        k(  480) = (  -0.3250000  -0.6750000  -0.0750000), wk =   0.0030000
        k(  481) = (  -0.1250000  -0.7750000   0.1250000), wk =   0.0015000
        k(  482) = (  -0.1750000  -0.7250000   0.0750000), wk =   0.0030000
        k(  483) = (  -0.2250000  -0.6750000   0.0250000), wk =   0.0030000
        k(  484) = (  -0.2750000  -0.6250000  -0.0250000), wk =   0.0030000
        k(  485) = (  -0.1250000  -0.6750000   0.1250000), wk =   0.0015000
        k(  486) = (  -0.1750000  -0.6250000   0.0750000), wk =   0.0030000
        k(  487) = (  -0.2250000  -0.5750000   0.0250000), wk =   0.0030000
        k(  488) = (  -0.1250000  -0.5750000   0.1250000), wk =   0.0015000
        k(  489) = (  -0.1750000  -0.5250000   0.0750000), wk =   0.0030000
        k(  490) = (  -0.1250000  -0.4750000   0.1250000), wk =   0.0015000
        k(  491) = (  -0.1750000   0.1750000   0.1750000), wk =   0.0005000
        k(  492) = (  -0.2250000   0.2250000   0.1250000), wk =   0.0015000
        k(  493) = (  -0.2750000   0.2750000   0.0750000), wk =   0.0015000
        k(  494) = (  -0.3250000   0.3250000   0.0250000), wk =   0.0015000
        k(  495) = (  -0.3750000   0.3750000  -0.0250000), wk =   0.0015000
        k(  496) = (  -0.4250000   0.4250000  -0.0750000), wk =   0.0015000
        k(  497) = (  -0.4750000   0.4750000  -0.1250000), wk =   0.0015000
        k(  498) = (   0.4750000  -0.4750000   0.8250000), wk =   0.0015000
        k(  499) = (   0.4250000  -0.4250000   0.7750000), wk =   0.0015000
        k(  500) = (   0.3750000  -0.3750000   0.7250000), wk =   0.0015000
        k(  501) = (   0.3250000  -0.3250000   0.6750000), wk =   0.0015000
        k(  502) = (   0.2750000  -0.2750000   0.6250000), wk =   0.0015000
        k(  503) = (   0.2250000  -0.2250000   0.5750000), wk =   0.0015000
        k(  504) = (   0.1750000  -0.1750000   0.5250000), wk =   0.0015000
        k(  505) = (  -0.1750000   0.2750000   0.1750000), wk =   0.0015000
        k(  506) = (  -0.2250000   0.3250000   0.1250000), wk =   0.0030000
        k(  507) = (  -0.2750000   0.3750000   0.0750000), wk =   0.0030000
        k(  508) = (  -0.3250000   0.4250000   0.0250000), wk =   0.0030000
        k(  509) = (  -0.3750000   0.4750000  -0.0250000), wk =   0.0030000
        k(  510) = (  -0.4250000   0.5250000  -0.0750000), wk =   0.0030000
        k(  511) = (   0.5250000  -0.4250000   0.8750000), wk =   0.0030000
        k(  512) = (   0.4750000  -0.3750000   0.8250000), wk =   0.0030000
        k(  513) = (   0.4250000  -0.3250000   0.7750000), wk =   0.0030000
        k(  514) = (   0.3750000  -0.2750000   0.7250000), wk =   0.0030000
        k(  515) = (   0.3250000  -0.2250000   0.6750000), wk =   0.0030000
        k(  516) = (   0.2750000  -0.1750000   0.6250000), wk =   0.0030000
        k(  517) = (   0.2250000  -0.1250000   0.5750000), wk =   0.0030000
        k(  518) = (  -0.1750000   0.3750000   0.1750000), wk =   0.0015000
        k(  519) = (  -0.2250000   0.4250000   0.1250000), wk =   0.0030000
        k(  520) = (  -0.2750000   0.4750000   0.0750000), wk =   0.0030000
        k(  521) = (  -0.3250000   0.5250000   0.0250000), wk =   0.0030000
        k(  522) = (  -0.3750000   0.5750000  -0.0250000), wk =   0.0030000
        k(  523) = (   0.5750000  -0.3750000   0.9250000), wk =   0.0030000
        k(  524) = (   0.5250000  -0.3250000   0.8750000), wk =   0.0030000
        k(  525) = (   0.4750000  -0.2750000   0.8250000), wk =   0.0030000
        k(  526) = (   0.4250000  -0.2250000   0.7750000), wk =   0.0030000
        k(  527) = (   0.3750000  -0.1750000   0.7250000), wk =   0.0030000
        k(  528) = (   0.3250000  -0.1250000   0.6750000), wk =   0.0030000
        k(  529) = (   0.2750000  -0.0750000   0.6250000), wk =   0.0030000
        k(  530) = (  -0.1750000   0.4750000   0.1750000), wk =   0.0015000
        k(  531) = (  -0.2250000   0.5250000   0.1250000), wk =   0.0030000
        k(  532) = (  -0.2750000   0.5750000   0.0750000), wk =   0.0030000
        k(  533) = (  -0.3250000   0.6250000   0.0250000), wk =   0.0030000
        k(  534) = (   0.6250000  -0.3250000   0.9750000), wk =   0.0030000
        k(  535) = (   0.5750000  -0.2750000   0.9250000), wk =   0.0030000
        k(  536) = (   0.5250000  -0.2250000   0.8750000), wk =   0.0030000
        k(  537) = (   0.4750000  -0.1750000   0.8250000), wk =   0.0030000
        k(  538) = (   0.4250000  -0.1250000   0.7750000), wk =   0.0030000
        k(  539) = (   0.3750000  -0.0750000   0.7250000), wk =   0.0030000
        k(  540) = (   0.3250000  -0.0250000   0.6750000), wk =   0.0030000
        k(  541) = (  -0.1750000   0.5750000   0.1750000), wk =   0.0015000
        k(  542) = (  -0.2250000   0.6250000   0.1250000), wk =   0.0030000
        k(  543) = (  -0.2750000   0.6750000   0.0750000), wk =   0.0030000
        k(  544) = (   0.6750000  -0.2750000   1.0250000), wk =   0.0030000
        k(  545) = (   0.6250000  -0.2250000   0.9750000), wk =   0.0030000
        k(  546) = (   0.5750000  -0.1750000   0.9250000), wk =   0.0030000
        k(  547) = (   0.5250000  -0.1250000   0.8750000), wk =   0.0030000
        k(  548) = (   0.4750000  -0.0750000   0.8250000), wk =   0.0030000
        k(  549) = (   0.4250000  -0.0250000   0.7750000), wk =   0.0030000
        k(  550) = (   0.3750000   0.0250000   0.7250000), wk =   0.0030000
        k(  551) = (  -0.1750000   0.6750000   0.1750000), wk =   0.0015000
        k(  552) = (  -0.2250000   0.7250000   0.1250000), wk =   0.0030000
        k(  553) = (   0.7250000  -0.2250000   1.0750000), wk =   0.0030000
        k(  554) = (   0.6750000  -0.1750000   1.0250000), wk =   0.0030000
        k(  555) = (   0.6250000  -0.1250000   0.9750000), wk =   0.0030000
        k(  556) = (   0.5750000  -0.0750000   0.9250000), wk =   0.0030000
        k(  557) = (   0.5250000  -0.0250000   0.8750000), wk =   0.0030000
        k(  558) = (   0.4750000   0.0250000   0.8250000), wk =   0.0030000
        k(  559) = (   0.4250000   0.0750000   0.7750000), wk =   0.0030000
        k(  560) = (  -0.1750000   0.7750000   0.1750000), wk =   0.0015000
        k(  561) = (   0.7750000  -0.1750000   1.1250000), wk =   0.0030000
        k(  562) = (   0.7250000  -0.1250000   1.0750000), wk =   0.0030000
        k(  563) = (   0.6750000  -0.0750000   1.0250000), wk =   0.0030000
        k(  564) = (   0.6250000  -0.0250000   0.9750000), wk =   0.0030000
        k(  565) = (   0.5750000   0.0250000   0.9250000), wk =   0.0030000
        k(  566) = (   0.5250000   0.0750000   0.8750000), wk =   0.0030000
        k(  567) = (   0.4750000   0.1250000   0.8250000), wk =   0.0030000
        k(  568) = (  -0.1750000  -1.1250000   0.1750000), wk =   0.0015000
        k(  569) = (  -0.2250000  -1.0750000   0.1250000), wk =   0.0030000
        k(  570) = (  -0.2750000  -1.0250000   0.0750000), wk =   0.0030000
        k(  571) = (  -0.3250000  -0.9750000   0.0250000), wk =   0.0030000
        k(  572) = (  -0.3750000  -0.9250000  -0.0250000), wk =   0.0030000
        k(  573) = (  -0.4250000  -0.8750000  -0.0750000), wk =   0.0030000
        k(  574) = (  -0.1750000  -1.0250000   0.1750000), wk =   0.0015000
        k(  575) = (  -0.2250000  -0.9750000   0.1250000), wk =   0.0030000
        k(  576) = (  -0.2750000  -0.9250000   0.0750000), wk =   0.0030000
        k(  577) = (  -0.3250000  -0.8750000   0.0250000), wk =   0.0030000
        k(  578) = (  -0.3750000  -0.8250000  -0.0250000), wk =   0.0030000
        k(  579) = (  -0.1750000  -0.9250000   0.1750000), wk =   0.0015000
        k(  580) = (  -0.2250000  -0.8750000   0.1250000), wk =   0.0030000
        k(  581) = (  -0.2750000  -0.8250000   0.0750000), wk =   0.0030000
        k(  582) = (  -0.3250000  -0.7750000   0.0250000), wk =   0.0030000
        k(  583) = (  -0.1750000  -0.8250000   0.1750000), wk =   0.0015000
        k(  584) = (  -0.2250000  -0.7750000   0.1250000), wk =   0.0030000
        k(  585) = (  -0.2750000  -0.7250000   0.0750000), wk =   0.0030000
        k(  586) = (  -0.1750000  -0.7250000   0.1750000), wk =   0.0015000
        k(  587) = (  -0.2250000  -0.6750000   0.1250000), wk =   0.0030000
        k(  588) = (  -0.1750000  -0.6250000   0.1750000), wk =   0.0015000
        k(  589) = (  -0.2250000   0.2250000   0.2250000), wk =   0.0005000
        k(  590) = (  -0.2750000   0.2750000   0.1750000), wk =   0.0015000
        k(  591) = (  -0.3250000   0.3250000   0.1250000), wk =   0.0015000
        k(  592) = (  -0.3750000   0.3750000   0.0750000), wk =   0.0015000
        k(  593) = (  -0.4250000   0.4250000   0.0250000), wk =   0.0015000
        k(  594) = (  -0.4750000   0.4750000  -0.0250000), wk =   0.0015000
        k(  595) = (   0.4750000  -0.4750000   0.9250000), wk =   0.0015000
        k(  596) = (   0.4250000  -0.4250000   0.8750000), wk =   0.0015000
        k(  597) = (   0.3750000  -0.3750000   0.8250000), wk =   0.0015000
        k(  598) = (   0.3250000  -0.3250000   0.7750000), wk =   0.0015000
        k(  599) = (   0.2750000  -0.2750000   0.7250000), wk =   0.0015000
        k(  600) = (   0.2250000  -0.2250000   0.6750000), wk =   0.0015000
        k(  601) = (  -0.2250000   0.3250000   0.2250000), wk =   0.0015000
        k(  602) = (  -0.2750000   0.3750000   0.1750000), wk =   0.0030000
        k(  603) = (  -0.3250000   0.4250000   0.1250000), wk =   0.0030000
        k(  604) = (  -0.3750000   0.4750000   0.0750000), wk =   0.0030000
        k(  605) = (  -0.4250000   0.5250000   0.0250000), wk =   0.0030000
        k(  606) = (   0.5250000  -0.4250000   0.9750000), wk =   0.0030000
        k(  607) = (   0.4750000  -0.3750000   0.9250000), wk =   0.0030000
        k(  608) = (   0.4250000  -0.3250000   0.8750000), wk =   0.0030000
        k(  609) = (   0.3750000  -0.2750000   0.8250000), wk =   0.0030000
        k(  610) = (   0.3250000  -0.2250000   0.7750000), wk =   0.0030000
        k(  611) = (   0.2750000  -0.1750000   0.7250000), wk =   0.0030000
        k(  612) = (  -0.2250000   0.4250000   0.2250000), wk =   0.0015000
        k(  613) = (  -0.2750000   0.4750000   0.1750000), wk =   0.0030000
        k(  614) = (  -0.3250000   0.5250000   0.1250000), wk =   0.0030000
        k(  615) = (  -0.3750000   0.5750000   0.0750000), wk =   0.0030000
        k(  616) = (   0.5750000  -0.3750000   1.0250000), wk =   0.0030000
        k(  617) = (   0.5250000  -0.3250000   0.9750000), wk =   0.0030000
        k(  618) = (   0.4750000  -0.2750000   0.9250000), wk =   0.0030000
        k(  619) = (   0.4250000  -0.2250000   0.8750000), wk =   0.0030000
        k(  620) = (   0.3750000  -0.1750000   0.8250000), wk =   0.0030000
        k(  621) = (   0.3250000  -0.1250000   0.7750000), wk =   0.0030000
        k(  622) = (  -0.2250000   0.5250000   0.2250000), wk =   0.0015000
        k(  623) = (  -0.2750000   0.5750000   0.1750000), wk =   0.0030000
        k(  624) = (  -0.3250000   0.6250000   0.1250000), wk =   0.0030000
        k(  625) = (   0.6250000  -0.3250000   1.0750000), wk =   0.0030000
        k(  626) = (   0.5750000  -0.2750000   1.0250000), wk =   0.0030000
        k(  627) = (   0.5250000  -0.2250000   0.9750000), wk =   0.0030000
        k(  628) = (   0.4750000  -0.1750000   0.9250000), wk =   0.0030000
        k(  629) = (   0.4250000  -0.1250000   0.8750000), wk =   0.0030000
        k(  630) = (   0.3750000  -0.0750000   0.8250000), wk =   0.0030000
        k(  631) = (  -0.2250000   0.6250000   0.2250000), wk =   0.0015000
        k(  632) = (  -0.2750000   0.6750000   0.1750000), wk =   0.0030000
        k(  633) = (   0.6750000  -0.2750000   1.1250000), wk =   0.0030000
        k(  634) = (   0.6250000  -0.2250000   1.0750000), wk =   0.0030000
        k(  635) = (   0.5750000  -0.1750000   1.0250000), wk =   0.0030000
        k(  636) = (   0.5250000  -0.1250000   0.9750000), wk =   0.0030000
        k(  637) = (   0.4750000  -0.0750000   0.9250000), wk =   0.0030000
        k(  638) = (   0.4250000  -0.0250000   0.8750000), wk =   0.0030000
        k(  639) = (  -0.2250000   0.7250000   0.2250000), wk =   0.0015000
        k(  640) = (   0.7250000  -0.2250000   1.1750000), wk =   0.0030000
        k(  641) = (   0.6750000  -0.1750000   1.1250000), wk =   0.0030000
        k(  642) = (   0.6250000  -0.1250000   1.0750000), wk =   0.0030000
        k(  643) = (   0.5750000  -0.0750000   1.0250000), wk =   0.0030000
        k(  644) = (   0.5250000  -0.0250000   0.9750000), wk =   0.0030000
        k(  645) = (   0.4750000   0.0250000   0.9250000), wk =   0.0030000
        k(  646) = (  -0.2250000  -1.1750000   0.2250000), wk =   0.0015000
        k(  647) = (  -0.2750000  -1.1250000   0.1750000), wk =   0.0030000
        k(  648) = (  -0.3250000  -1.0750000   0.1250000), wk =   0.0030000
        k(  649) = (  -0.3750000  -1.0250000   0.0750000), wk =   0.0030000
        k(  650) = (  -0.4250000  -0.9750000   0.0250000), wk =   0.0030000
        k(  651) = (  -0.2250000  -1.0750000   0.2250000), wk =   0.0015000
        k(  652) = (  -0.2750000  -1.0250000   0.1750000), wk =   0.0030000
        k(  653) = (  -0.3250000  -0.9750000   0.1250000), wk =   0.0030000
        k(  654) = (  -0.3750000  -0.9250000   0.0750000), wk =   0.0030000
        k(  655) = (  -0.2250000  -0.9750000   0.2250000), wk =   0.0015000
        k(  656) = (  -0.2750000  -0.9250000   0.1750000), wk =   0.0030000
        k(  657) = (  -0.3250000  -0.8750000   0.1250000), wk =   0.0030000
        k(  658) = (  -0.2250000  -0.8750000   0.2250000), wk =   0.0015000
        k(  659) = (  -0.2750000  -0.8250000   0.1750000), wk =   0.0030000
        k(  660) = (  -0.2250000  -0.7750000   0.2250000), wk =   0.0015000
        k(  661) = (  -0.2750000   0.2750000   0.2750000), wk =   0.0005000
        k(  662) = (  -0.3250000   0.3250000   0.2250000), wk =   0.0015000
        k(  663) = (  -0.3750000   0.3750000   0.1750000), wk =   0.0015000
        k(  664) = (  -0.4250000   0.4250000   0.1250000), wk =   0.0015000
        k(  665) = (  -0.4750000   0.4750000   0.0750000), wk =   0.0015000
        k(  666) = (   0.4750000  -0.4750000   1.0250000), wk =   0.0015000
        k(  667) = (   0.4250000  -0.4250000   0.9750000), wk =   0.0015000
        k(  668) = (   0.3750000  -0.3750000   0.9250000), wk =   0.0015000
        k(  669) = (   0.3250000  -0.3250000   0.8750000), wk =   0.0015000
        k(  670) = (   0.2750000  -0.2750000   0.8250000), wk =   0.0015000
        k(  671) = (  -0.2750000   0.3750000   0.2750000), wk =   0.0015000
        k(  672) = (  -0.3250000   0.4250000   0.2250000), wk =   0.0030000
        k(  673) = (  -0.3750000   0.4750000   0.1750000), wk =   0.0030000
        k(  674) = (  -0.4250000   0.5250000   0.1250000), wk =   0.0030000
        k(  675) = (   0.5250000  -0.4250000   1.0750000), wk =   0.0030000
        k(  676) = (   0.4750000  -0.3750000   1.0250000), wk =   0.0030000
        k(  677) = (   0.4250000  -0.3250000   0.9750000), wk =   0.0030000
        k(  678) = (   0.3750000  -0.2750000   0.9250000), wk =   0.0030000
        k(  679) = (   0.3250000  -0.2250000   0.8750000), wk =   0.0030000
        k(  680) = (  -0.2750000   0.4750000   0.2750000), wk =   0.0015000
        k(  681) = (  -0.3250000   0.5250000   0.2250000), wk =   0.0030000
        k(  682) = (  -0.3750000   0.5750000   0.1750000), wk =   0.0030000
        k(  683) = (   0.5750000  -0.3750000   1.1250000), wk =   0.0030000
        k(  684) = (   0.5250000  -0.3250000   1.0750000), wk =   0.0030000
        k(  685) = (   0.4750000  -0.2750000   1.0250000), wk =   0.0030000
        k(  686) = (   0.4250000  -0.2250000   0.9750000), wk =   0.0030000
        k(  687) = (   0.3750000  -0.1750000   0.9250000), wk =   0.0030000
        k(  688) = (  -0.2750000   0.5750000   0.2750000), wk =   0.0015000
        k(  689) = (  -0.3250000   0.6250000   0.2250000), wk =   0.0030000
        k(  690) = (   0.6250000  -0.3250000   1.1750000), wk =   0.0030000
        k(  691) = (   0.5750000  -0.2750000   1.1250000), wk =   0.0030000
        k(  692) = (   0.5250000  -0.2250000   1.0750000), wk =   0.0030000
        k(  693) = (   0.4750000  -0.1750000   1.0250000), wk =   0.0030000
        k(  694) = (   0.4250000  -0.1250000   0.9750000), wk =   0.0030000
        k(  695) = (  -0.2750000   0.6750000   0.2750000), wk =   0.0015000
        k(  696) = (   0.6750000  -0.2750000   1.2250000), wk =   0.0030000
        k(  697) = (   0.6250000  -0.2250000   1.1750000), wk =   0.0030000
        k(  698) = (   0.5750000  -0.1750000   1.1250000), wk =   0.0030000
        k(  699) = (   0.5250000  -0.1250000   1.0750000), wk =   0.0030000
        k(  700) = (   0.4750000  -0.0750000   1.0250000), wk =   0.0030000
        k(  701) = (  -0.2750000  -1.2250000   0.2750000), wk =   0.0015000
        k(  702) = (  -0.3250000  -1.1750000   0.2250000), wk =   0.0030000
        k(  703) = (  -0.3750000  -1.1250000   0.1750000), wk =   0.0030000
        k(  704) = (  -0.4250000  -1.0750000   0.1250000), wk =   0.0030000
        k(  705) = (  -0.2750000  -1.1250000   0.2750000), wk =   0.0015000
        k(  706) = (  -0.3250000  -1.0750000   0.2250000), wk =   0.0030000
        k(  707) = (  -0.3750000  -1.0250000   0.1750000), wk =   0.0030000
        k(  708) = (  -0.2750000  -1.0250000   0.2750000), wk =   0.0015000
        k(  709) = (  -0.3250000  -0.9750000   0.2250000), wk =   0.0030000
        k(  710) = (  -0.2750000  -0.9250000   0.2750000), wk =   0.0015000
        k(  711) = (  -0.3250000   0.3250000   0.3250000), wk =   0.0005000
        k(  712) = (  -0.3750000   0.3750000   0.2750000), wk =   0.0015000
        k(  713) = (  -0.4250000   0.4250000   0.2250000), wk =   0.0015000
        k(  714) = (  -0.4750000   0.4750000   0.1750000), wk =   0.0015000
        k(  715) = (   0.4750000  -0.4750000   1.1250000), wk =   0.0015000
        k(  716) = (   0.4250000  -0.4250000   1.0750000), wk =   0.0015000
        k(  717) = (   0.3750000  -0.3750000   1.0250000), wk =   0.0015000
        k(  718) = (   0.3250000  -0.3250000   0.9750000), wk =   0.0015000
        k(  719) = (  -0.3250000   0.4250000   0.3250000), wk =   0.0015000
        k(  720) = (  -0.3750000   0.4750000   0.2750000), wk =   0.0030000
        k(  721) = (  -0.4250000   0.5250000   0.2250000), wk =   0.0030000
        k(  722) = (   0.5250000  -0.4250000   1.1750000), wk =   0.0030000
        k(  723) = (   0.4750000  -0.3750000   1.1250000), wk =   0.0030000
        k(  724) = (   0.4250000  -0.3250000   1.0750000), wk =   0.0030000
        k(  725) = (   0.3750000  -0.2750000   1.0250000), wk =   0.0030000
        k(  726) = (  -0.3250000   0.5250000   0.3250000), wk =   0.0015000
        k(  727) = (  -0.3750000   0.5750000   0.2750000), wk =   0.0030000
        k(  728) = (   0.5750000  -0.3750000   1.2250000), wk =   0.0030000
        k(  729) = (   0.5250000  -0.3250000   1.1750000), wk =   0.0030000
        k(  730) = (   0.4750000  -0.2750000   1.1250000), wk =   0.0030000
        k(  731) = (   0.4250000  -0.2250000   1.0750000), wk =   0.0030000
        k(  732) = (  -0.3250000   0.6250000   0.3250000), wk =   0.0015000
        k(  733) = (   0.6250000  -0.3250000   1.2750000), wk =   0.0030000
        k(  734) = (   0.5750000  -0.2750000   1.2250000), wk =   0.0030000
        k(  735) = (   0.5250000  -0.2250000   1.1750000), wk =   0.0030000
        k(  736) = (   0.4750000  -0.1750000   1.1250000), wk =   0.0030000
        k(  737) = (  -0.3250000  -1.2750000   0.3250000), wk =   0.0015000
        k(  738) = (  -0.3750000  -1.2250000   0.2750000), wk =   0.0030000
        k(  739) = (  -0.4250000  -1.1750000   0.2250000), wk =   0.0030000
        k(  740) = (  -0.3250000  -1.1750000   0.3250000), wk =   0.0015000
        k(  741) = (  -0.3750000  -1.1250000   0.2750000), wk =   0.0030000
        k(  742) = (  -0.3250000  -1.0750000   0.3250000), wk =   0.0015000
        k(  743) = (  -0.3750000   0.3750000   0.3750000), wk =   0.0005000
        k(  744) = (  -0.4250000   0.4250000   0.3250000), wk =   0.0015000
        k(  745) = (  -0.4750000   0.4750000   0.2750000), wk =   0.0015000
        k(  746) = (   0.4750000  -0.4750000   1.2250000), wk =   0.0015000
        k(  747) = (   0.4250000  -0.4250000   1.1750000), wk =   0.0015000
        k(  748) = (   0.3750000  -0.3750000   1.1250000), wk =   0.0015000
        k(  749) = (  -0.3750000   0.4750000   0.3750000), wk =   0.0015000
        k(  750) = (  -0.4250000   0.5250000   0.3250000), wk =   0.0030000
        k(  751) = (   0.5250000  -0.4250000   1.2750000), wk =   0.0030000
        k(  752) = (   0.4750000  -0.3750000   1.2250000), wk =   0.0030000
        k(  753) = (   0.4250000  -0.3250000   1.1750000), wk =   0.0030000
        k(  754) = (  -0.3750000   0.5750000   0.3750000), wk =   0.0015000
        k(  755) = (   0.5750000  -0.3750000   1.3250000), wk =   0.0030000
        k(  756) = (   0.5250000  -0.3250000   1.2750000), wk =   0.0030000
        k(  757) = (   0.4750000  -0.2750000   1.2250000), wk =   0.0030000
        k(  758) = (  -0.3750000  -1.3250000   0.3750000), wk =   0.0015000
        k(  759) = (  -0.4250000  -1.2750000   0.3250000), wk =   0.0030000
        k(  760) = (  -0.3750000  -1.2250000   0.3750000), wk =   0.0015000
        k(  761) = (  -0.4250000   0.4250000   0.4250000), wk =   0.0005000
        k(  762) = (  -0.4750000   0.4750000   0.3750000), wk =   0.0015000
        k(  763) = (   0.4750000  -0.4750000   1.3250000), wk =   0.0015000
        k(  764) = (   0.4250000  -0.4250000   1.2750000), wk =   0.0015000
        k(  765) = (  -0.4250000   0.5250000   0.4250000), wk =   0.0015000
        k(  766) = (   0.5250000  -0.4250000   1.3750000), wk =   0.0030000
        k(  767) = (   0.4750000  -0.3750000   1.3250000), wk =   0.0030000
        k(  768) = (  -0.4250000  -1.3750000   0.4250000), wk =   0.0015000
        k(  769) = (  -0.4750000   0.4750000   0.4750000), wk =   0.0005000
        k(  770) = (   0.4750000  -0.4750000   1.4250000), wk =   0.0015000

                       cryst. coord.
        k(    1) = (   0.0250000   0.0250000   0.0250000), wk =   0.0005000
        k(    2) = (   0.0250000   0.0250000   0.0750000), wk =   0.0015000
        k(    3) = (   0.0250000   0.0250000   0.1250000), wk =   0.0015000
        k(    4) = (   0.0250000   0.0250000   0.1750000), wk =   0.0015000
        k(    5) = (   0.0250000   0.0250000   0.2250000), wk =   0.0015000
        k(    6) = (   0.0250000   0.0250000   0.2750000), wk =   0.0015000
        k(    7) = (   0.0250000   0.0250000   0.3250000), wk =   0.0015000
        k(    8) = (   0.0250000   0.0250000   0.3750000), wk =   0.0015000
        k(    9) = (   0.0250000   0.0250000   0.4250000), wk =   0.0015000
        k(   10) = (   0.0250000   0.0250000   0.4750000), wk =   0.0015000
        k(   11) = (   0.0250000   0.0250000  -0.4750000), wk =   0.0015000
        k(   12) = (   0.0250000   0.0250000  -0.4250000), wk =   0.0015000
        k(   13) = (   0.0250000   0.0250000  -0.3750000), wk =   0.0015000
        k(   14) = (   0.0250000   0.0250000  -0.3250000), wk =   0.0015000
        k(   15) = (   0.0250000   0.0250000  -0.2750000), wk =   0.0015000
        k(   16) = (   0.0250000   0.0250000  -0.2250000), wk =   0.0015000
        k(   17) = (   0.0250000   0.0250000  -0.1750000), wk =   0.0015000
        k(   18) = (   0.0250000   0.0250000  -0.1250000), wk =   0.0015000
        k(   19) = (   0.0250000   0.0250000  -0.0750000), wk =   0.0015000
        k(   20) = (   0.0250000   0.0250000  -0.0250000), wk =   0.0015000
        k(   21) = (   0.0250000   0.0750000   0.0750000), wk =   0.0015000
        k(   22) = (   0.0250000   0.0750000   0.1250000), wk =   0.0030000
        k(   23) = (   0.0250000   0.0750000   0.1750000), wk =   0.0030000
        k(   24) = (   0.0250000   0.0750000   0.2250000), wk =   0.0030000
        k(   25) = (   0.0250000   0.0750000   0.2750000), wk =   0.0030000
        k(   26) = (   0.0250000   0.0750000   0.3250000), wk =   0.0030000
        k(   27) = (   0.0250000   0.0750000   0.3750000), wk =   0.0030000
        k(   28) = (   0.0250000   0.0750000   0.4250000), wk =   0.0030000
        k(   29) = (   0.0250000   0.0750000   0.4750000), wk =   0.0030000
        k(   30) = (   0.0250000   0.0750000  -0.4750000), wk =   0.0030000
        k(   31) = (   0.0250000   0.0750000  -0.4250000), wk =   0.0030000
        k(   32) = (   0.0250000   0.0750000  -0.3750000), wk =   0.0030000
        k(   33) = (   0.0250000   0.0750000  -0.3250000), wk =   0.0030000
        k(   34) = (   0.0250000   0.0750000  -0.2750000), wk =   0.0030000
        k(   35) = (   0.0250000   0.0750000  -0.2250000), wk =   0.0030000
        k(   36) = (   0.0250000   0.0750000  -0.1750000), wk =   0.0030000
        k(   37) = (   0.0250000   0.0750000  -0.1250000), wk =   0.0030000
        k(   38) = (   0.0250000   0.0750000  -0.0750000), wk =   0.0030000
        k(   39) = (   0.0250000   0.0750000  -0.0250000), wk =   0.0030000
        k(   40) = (   0.0250000   0.1250000   0.1250000), wk =   0.0015000
        k(   41) = (   0.0250000   0.1250000   0.1750000), wk =   0.0030000
        k(   42) = (   0.0250000   0.1250000   0.2250000), wk =   0.0030000
        k(   43) = (   0.0250000   0.1250000   0.2750000), wk =   0.0030000
        k(   44) = (   0.0250000   0.1250000   0.3250000), wk =   0.0030000
        k(   45) = (   0.0250000   0.1250000   0.3750000), wk =   0.0030000
        k(   46) = (   0.0250000   0.1250000   0.4250000), wk =   0.0030000
        k(   47) = (   0.0250000   0.1250000   0.4750000), wk =   0.0030000
        k(   48) = (   0.0250000   0.1250000  -0.4750000), wk =   0.0030000
        k(   49) = (   0.0250000   0.1250000  -0.4250000), wk =   0.0030000
        k(   50) = (   0.0250000   0.1250000  -0.3750000), wk =   0.0030000
        k(   51) = (   0.0250000   0.1250000  -0.3250000), wk =   0.0030000
        k(   52) = (   0.0250000   0.1250000  -0.2750000), wk =   0.0030000
        k(   53) = (   0.0250000   0.1250000  -0.2250000), wk =   0.0030000
        k(   54) = (   0.0250000   0.1250000  -0.1750000), wk =   0.0030000
        k(   55) = (   0.0250000   0.1250000  -0.1250000), wk =   0.0030000
        k(   56) = (   0.0250000   0.1250000  -0.0750000), wk =   0.0030000
        k(   57) = (   0.0250000   0.1250000  -0.0250000), wk =   0.0030000
        k(   58) = (   0.0250000   0.1750000   0.1750000), wk =   0.0015000
        k(   59) = (   0.0250000   0.1750000   0.2250000), wk =   0.0030000
        k(   60) = (   0.0250000   0.1750000   0.2750000), wk =   0.0030000
        k(   61) = (   0.0250000   0.1750000   0.3250000), wk =   0.0030000
        k(   62) = (   0.0250000   0.1750000   0.3750000), wk =   0.0030000
        k(   63) = (   0.0250000   0.1750000   0.4250000), wk =   0.0030000
        k(   64) = (   0.0250000   0.1750000   0.4750000), wk =   0.0030000
[...]
        k(  698) = (   0.2750000   0.4750000  -0.3750000), wk =   0.0030000
        k(  699) = (   0.2750000   0.4750000  -0.3250000), wk =   0.0030000
        k(  700) = (   0.2750000   0.4750000  -0.2750000), wk =   0.0030000
        k(  701) = (   0.2750000  -0.4750000  -0.4750000), wk =   0.0015000
        k(  702) = (   0.2750000  -0.4750000  -0.4250000), wk =   0.0030000
        k(  703) = (   0.2750000  -0.4750000  -0.3750000), wk =   0.0030000
        k(  704) = (   0.2750000  -0.4750000  -0.3250000), wk =   0.0030000
        k(  705) = (   0.2750000  -0.4250000  -0.4250000), wk =   0.0015000
        k(  706) = (   0.2750000  -0.4250000  -0.3750000), wk =   0.0030000
        k(  707) = (   0.2750000  -0.4250000  -0.3250000), wk =   0.0030000
        k(  708) = (   0.2750000  -0.3750000  -0.3750000), wk =   0.0015000
        k(  709) = (   0.2750000  -0.3750000  -0.3250000), wk =   0.0030000
        k(  710) = (   0.2750000  -0.3250000  -0.3250000), wk =   0.0015000
        k(  711) = (   0.3250000   0.3250000   0.3250000), wk =   0.0005000
        k(  712) = (   0.3250000   0.3250000   0.3750000), wk =   0.0015000
        k(  713) = (   0.3250000   0.3250000   0.4250000), wk =   0.0015000
        k(  714) = (   0.3250000   0.3250000   0.4750000), wk =   0.0015000
        k(  715) = (   0.3250000   0.3250000  -0.4750000), wk =   0.0015000
        k(  716) = (   0.3250000   0.3250000  -0.4250000), wk =   0.0015000
        k(  717) = (   0.3250000   0.3250000  -0.3750000), wk =   0.0015000
        k(  718) = (   0.3250000   0.3250000  -0.3250000), wk =   0.0015000
        k(  719) = (   0.3250000   0.3750000   0.3750000), wk =   0.0015000
        k(  720) = (   0.3250000   0.3750000   0.4250000), wk =   0.0030000
        k(  721) = (   0.3250000   0.3750000   0.4750000), wk =   0.0030000
        k(  722) = (   0.3250000   0.3750000  -0.4750000), wk =   0.0030000
        k(  723) = (   0.3250000   0.3750000  -0.4250000), wk =   0.0030000
        k(  724) = (   0.3250000   0.3750000  -0.3750000), wk =   0.0030000
        k(  725) = (   0.3250000   0.3750000  -0.3250000), wk =   0.0030000
        k(  726) = (   0.3250000   0.4250000   0.4250000), wk =   0.0015000
        k(  727) = (   0.3250000   0.4250000   0.4750000), wk =   0.0030000
        k(  728) = (   0.3250000   0.4250000  -0.4750000), wk =   0.0030000
        k(  729) = (   0.3250000   0.4250000  -0.4250000), wk =   0.0030000
        k(  730) = (   0.3250000   0.4250000  -0.3750000), wk =   0.0030000
        k(  731) = (   0.3250000   0.4250000  -0.3250000), wk =   0.0030000
        k(  732) = (   0.3250000   0.4750000   0.4750000), wk =   0.0015000
        k(  733) = (   0.3250000   0.4750000  -0.4750000), wk =   0.0030000
        k(  734) = (   0.3250000   0.4750000  -0.4250000), wk =   0.0030000
        k(  735) = (   0.3250000   0.4750000  -0.3750000), wk =   0.0030000
        k(  736) = (   0.3250000   0.4750000  -0.3250000), wk =   0.0030000
        k(  737) = (   0.3250000  -0.4750000  -0.4750000), wk =   0.0015000
        k(  738) = (   0.3250000  -0.4750000  -0.4250000), wk =   0.0030000
        k(  739) = (   0.3250000  -0.4750000  -0.3750000), wk =   0.0030000
        k(  740) = (   0.3250000  -0.4250000  -0.4250000), wk =   0.0015000
        k(  741) = (   0.3250000  -0.4250000  -0.3750000), wk =   0.0030000
        k(  742) = (   0.3250000  -0.3750000  -0.3750000), wk =   0.0015000
        k(  743) = (   0.3750000   0.3750000   0.3750000), wk =   0.0005000
        k(  744) = (   0.3750000   0.3750000   0.4250000), wk =   0.0015000
        k(  745) = (   0.3750000   0.3750000   0.4750000), wk =   0.0015000
        k(  746) = (   0.3750000   0.3750000  -0.4750000), wk =   0.0015000
        k(  747) = (   0.3750000   0.3750000  -0.4250000), wk =   0.0015000
        k(  748) = (   0.3750000   0.3750000  -0.3750000), wk =   0.0015000
        k(  749) = (   0.3750000   0.4250000   0.4250000), wk =   0.0015000
        k(  750) = (   0.3750000   0.4250000   0.4750000), wk =   0.0030000
        k(  751) = (   0.3750000   0.4250000  -0.4750000), wk =   0.0030000
        k(  752) = (   0.3750000   0.4250000  -0.4250000), wk =   0.0030000
        k(  753) = (   0.3750000   0.4250000  -0.3750000), wk =   0.0030000
        k(  754) = (   0.3750000   0.4750000   0.4750000), wk =   0.0015000
        k(  755) = (   0.3750000   0.4750000  -0.4750000), wk =   0.0030000
        k(  756) = (   0.3750000   0.4750000  -0.4250000), wk =   0.0030000
        k(  757) = (   0.3750000   0.4750000  -0.3750000), wk =   0.0030000
        k(  758) = (   0.3750000  -0.4750000  -0.4750000), wk =   0.0015000
        k(  759) = (   0.3750000  -0.4750000  -0.4250000), wk =   0.0030000
        k(  760) = (   0.3750000  -0.4250000  -0.4250000), wk =   0.0015000
        k(  761) = (   0.4250000   0.4250000   0.4250000), wk =   0.0005000
        k(  762) = (   0.4250000   0.4250000   0.4750000), wk =   0.0015000
        k(  763) = (   0.4250000   0.4250000  -0.4750000), wk =   0.0015000
        k(  764) = (   0.4250000   0.4250000  -0.4250000), wk =   0.0015000
        k(  765) = (   0.4250000   0.4750000   0.4750000), wk =   0.0015000
        k(  766) = (   0.4250000   0.4750000  -0.4750000), wk =   0.0030000
        k(  767) = (   0.4250000   0.4750000  -0.4250000), wk =   0.0030000
        k(  768) = (   0.4250000  -0.4750000  -0.4750000), wk =   0.0015000
        k(  769) = (   0.4750000   0.4750000   0.4750000), wk =   0.0005000
        k(  770) = (   0.4750000   0.4750000  -0.4750000), wk =   0.0015000

     PseudoPot. # 1 for P  read from file:
     /home/sachs/software/q-e/Pseudofolder/nc-sr-04_pbesol_standard_upf/P.upf
     MD5 check sum: 75867eb866653fb8e657998dd88da902
     Pseudo is Norm-conserving + core correction, Zval =  5.0
     Generated using ONCVPSP code by D. R. Hamann
     Using radial grid of 1298 points,  6 beta functions with: 
                l(1) =   0
                l(2) =   0
                l(3) =   1
                l(4) =   1
                l(5) =   2
                l(6) =   2

     PseudoPot. # 2 for Ga read from file:
     /home/sachs/software/q-e/Pseudofolder/nc-sr-04_pbesol_standard_upf/Ga.upf
     MD5 check sum: 3b2828b26f3ae6b9eab8bf4a0fe74f9e
     Pseudo is Norm-conserving + core correction, Zval = 13.0
     Generated using ONCVPSP code by D. R. Hamann
     Using radial grid of 1902 points,  6 beta functions with: 
                l(1) =   0
                l(2) =   0
                l(3) =   1
                l(4) =   1
                l(5) =   2
                l(6) =   2

     point group T_d (-43m) 
     there are  5 classes
     the character table:

       E     8C3   3C2   6S4   6s_d 
A_1    1.00  1.00  1.00  1.00  1.00
A_2    1.00  1.00  1.00 -1.00 -1.00
E      2.00 -1.00  2.00  0.00  0.00
T_1    3.00  0.00 -1.00  1.00 -1.00
T_2    3.00  0.00 -1.00 -1.00  1.00

     the symmetry operations in each class and the name of the first element:

     E        1
                                                                 
     8C3      5    7    8    6   12    9   10   11
                                                                 
     3C2      2    3    4
                                                                 
     6S4     15   16   20   19   23   24
                                                                 
     6s_d    13   14   17   18   21   22
                                                                 


     Electric field:
     Dielectric constant
     Born effective charges as d Force / d E


     Atomic displacements:
     There are    2 irreducible representations

     Representation     1      3 modes -  To be done
     Irreps are as follows:

     mode #   1              mode #   2              mode #   3
     (  -0.00000  -0.00000 ) (  -0.00000  -0.00000 ) (  -0.00000  -0.00000 ) 
     (  -0.00000  -0.00000 ) (  -0.00000  -0.00000 ) (  -0.00000  -0.00000 ) 
     (  -0.00000  -0.00000 ) (  -0.00000  -0.00000 ) (  -0.00000  -0.00000 ) 
     (  -0.60049  -0.00000 ) (  -0.34972  -0.00000 ) (  -0.71910  -0.00000 ) 
     (   0.79861  -0.00000 ) (  -0.30762  -0.00000 ) (  -0.51729  -0.00000 ) 
     (   0.04030  -0.00000 ) (   0.88491  -0.00000 ) (  -0.46402  -0.00000 ) 

     Representation     2      3 modes -  To be done
     Irreps are as follows:

     mode #   4              mode #   5              mode #   6
     (  -0.10000  -0.00000 ) (  -0.98995  -0.00000 ) (  -0.10000  -0.00000 ) 
     (   0.70000   0.00000 ) (  -0.14142  -0.00000 ) (   0.70000   0.00000 ) 
     (  -0.70711  -0.00000 ) (  -0.00000  -0.00000 ) (   0.70711   0.00000 ) 
     (  -0.00000  -0.00000 ) (  -0.00000  -0.00000 ) (  -0.00000   0.00000 ) 
     (  -0.00000  -0.00000 ) (  -0.00000  -0.00000 ) (  -0.00000   0.00000 ) 
     (  -0.00000  -0.00000 ) (  -0.00000  -0.00000 ) (  -0.00000   0.00000 ) 



     Alpha used in Ewald sum =   2.8000
     PHONON       :     24.67s CPU     52.02s WALL


     Electric Fields Calculation

      iter #   1 total cpu time :   841.6 secs   av.it.:   8.5
      thresh= 1.000E-02 alpha_mix =  0.300 |ddv_scf|^2 =  2.383E-08

      iter #   2 total cpu time :  1169.8 secs   av.it.:  16.7
      thresh= 1.544E-05 alpha_mix =  0.300 |ddv_scf|^2 =  5.322E-09

      iter #   3 total cpu time :  1516.8 secs   av.it.:  17.7
      thresh= 7.295E-06 alpha_mix =  0.300 |ddv_scf|^2 =  1.968E-10

      iter #   4 total cpu time :  1869.1 secs   av.it.:  18.3
      thresh= 1.403E-06 alpha_mix =  0.300 |ddv_scf|^2 =  3.892E-12

      iter #   5 total cpu time :  2210.2 secs   av.it.:  17.2
      thresh= 1.973E-07 alpha_mix =  0.300 |ddv_scf|^2 =  1.100E-12

      iter #   6 total cpu time :  2561.3 secs   av.it.:  18.4
      thresh= 1.049E-07 alpha_mix =  0.300 |ddv_scf|^2 =  8.572E-14

     End of electric fields calculation

          Dielectric constant in cartesian axis 

          (      10.695405586       0.000000000       0.000000000 )
          (       0.000000000      10.695405586      -0.000000000 )
          (       0.000000000      -0.000000000      10.695405586 )

          Effective charges (d Force / dE) in cartesian axis without acoustic sum rule applied (asr)

           atom    1  Ga    Mean Z*:        2.14344
      Ex  (        2.14344        0.00000       -0.00000 )
      Ey  (        0.00000        2.14344        0.00000 )
      Ez  (        0.00000        0.00000        2.14344 )
           atom    2  P     Mean Z*:       -2.11755
      Ex  (       -2.11755        0.00000        0.00000 )
      Ey  (        0.00000       -2.11755       -0.00000 )
      Ez  (       -0.00000       -0.00000       -2.11755 )

          Effective charges Sum: Mean:        0.02589
              0.02589        0.00000        0.00000
              0.00000        0.02589       -0.00000
             -0.00000       -0.00000        0.02589

          Effective charges (d Force / dE) in cartesian axis with asr applied: 
           atom    1  Ga    Mean Z*:        2.13049
      E*x (        2.13049       -0.00000       -0.00000 )
      E*y (       -0.00000        2.13049        0.00000 )
      E*z (        0.00000        0.00000        2.13049 )
           atom    2  P     Mean Z*:       -2.13049
      E*x (       -2.13049        0.00000        0.00000 )
      E*y (        0.00000       -2.13049       -0.00000 )
      E*z (       -0.00000       -0.00000       -2.13049 )


     Representation #   1 modes #   1   2   3

     Self-consistent Calculation

      iter #   1 total cpu time :  2975.1 secs   av.it.:   7.9
      thresh= 1.000E-02 alpha_mix =  0.300 |ddv_scf|^2 =  1.330E-08

      iter #   2 total cpu time :  3309.8 secs   av.it.:  16.8
      thresh= 1.153E-05 alpha_mix =  0.300 |ddv_scf|^2 =  2.893E-09

      iter #   3 total cpu time :  3658.4 secs   av.it.:  17.8
      thresh= 5.378E-06 alpha_mix =  0.300 |ddv_scf|^2 =  6.924E-11

      iter #   4 total cpu time :  4004.2 secs   av.it.:  18.0
      thresh= 8.321E-07 alpha_mix =  0.300 |ddv_scf|^2 =  2.852E-12

      iter #   5 total cpu time :  4349.1 secs   av.it.:  17.9
      thresh= 1.689E-07 alpha_mix =  0.300 |ddv_scf|^2 =  9.742E-14

     End of self-consistent calculation

     Convergence has been achieved 


     Representation #   2 modes #   4   5   6

     Self-consistent Calculation

      iter #   1 total cpu time :  4658.9 secs   av.it.:  11.7
      thresh= 1.000E-02 alpha_mix =  0.300 |ddv_scf|^2 =  8.929E-07

      iter #   2 total cpu time :  5014.8 secs   av.it.:  18.1
      thresh= 9.449E-05 alpha_mix =  0.300 |ddv_scf|^2 =  1.230E-07

      iter #   3 total cpu time :  5373.4 secs   av.it.:  18.8
      thresh= 3.507E-05 alpha_mix =  0.300 |ddv_scf|^2 =  1.154E-09

      iter #   4 total cpu time :  5720.1 secs   av.it.:  17.9
      thresh= 3.397E-06 alpha_mix =  0.300 |ddv_scf|^2 =  2.282E-11

      iter #   5 total cpu time :  6045.8 secs   av.it.:  16.8
      thresh= 4.777E-07 alpha_mix =  0.300 |ddv_scf|^2 =  6.894E-12

      iter #   6 total cpu time :  6395.9 secs   av.it.:  18.3
      thresh= 2.626E-07 alpha_mix =  0.300 |ddv_scf|^2 =  1.520E-13

      iter #   7 total cpu time :  6733.4 secs   av.it.:  17.5
      thresh= 3.899E-08 alpha_mix =  0.300 |ddv_scf|^2 =  8.954E-15

     End of self-consistent calculation

     Convergence has been achieved 

     Number of q in the star =    1
     List of q in the star:
          1   0.000000000   0.000000000   0.000000000

          Dielectric constant in cartesian axis 

          (      10.695405586       0.000000000       0.000000000 )
          (       0.000000000      10.695405586      -0.000000000 )
          (       0.000000000      -0.000000000      10.695405586 )

          Effective charges (d Force / dE) in cartesian axis without acoustic sum rule applied (asr)

           atom    1  Ga    Mean Z*:        2.14344
      Ex  (        2.14344        0.00000       -0.00000 )
      Ey  (        0.00000        2.14344        0.00000 )
      Ez  (        0.00000        0.00000        2.14344 )
           atom    2  P     Mean Z*:       -2.11755
      Ex  (       -2.11755        0.00000        0.00000 )
      Ey  (        0.00000       -2.11755       -0.00000 )
      Ez  (       -0.00000       -0.00000       -2.11755 )

          Effective charges Sum: Mean:        0.02589
              0.02589        0.00000        0.00000
              0.00000        0.02589       -0.00000
             -0.00000       -0.00000        0.02589

          Effective charges (d Force / dE) in cartesian axis with asr applied: 
           atom    1  Ga    Mean Z*:        2.13049
      E*x (        2.13049       -0.00000       -0.00000 )
      E*y (       -0.00000        2.13049        0.00000 )
      E*z (        0.00000        0.00000        2.13049 )
           atom    2  P     Mean Z*:       -2.13049
      E*x (       -2.13049        0.00000        0.00000 )
      E*y (        0.00000       -2.13049       -0.00000 )
      E*z (       -0.00000       -0.00000       -2.13049 )

     Diagonalizing the dynamical matrix

     q = (    0.000000000   0.000000000   0.000000000 ) 

 **************************************************************************
     freq (    1) =       1.561005 [THz] =      52.069533 [cm-1]
     freq (    2) =       1.561005 [THz] =      52.069533 [cm-1]
     freq (    3) =       1.561005 [THz] =      52.069533 [cm-1]
     freq (    4) =      10.591999 [THz] =     353.311054 [cm-1]
     freq (    5) =      10.591999 [THz] =     353.311054 [cm-1]
     freq (    6) =      10.591999 [THz] =     353.311054 [cm-1]
 **************************************************************************

     Mode symmetry, T_d (-43m)  point group:

     freq (   1-   3) =         52.1  [cm-1]   --> T_2  G_15 P_4   I+R
     freq (   4-   6) =        353.3  [cm-1]   --> T_2  G_15 P_4   I+R

     PHONON       :      1h46m CPU      1h52m WALL

     INITIALIZATION: 
     phq_setup    :      0.28s CPU      0.30s WALL (       1 calls)
     phq_init     :     14.84s CPU     15.32s WALL (       1 calls)

     phq_init     :     14.84s CPU     15.32s WALL (       1 calls)
     set_drhoc    :      0.04s CPU      0.04s WALL (       3 calls)
     init_vloc    :      0.01s CPU      0.01s WALL (       1 calls)
     init_us_1    :      0.00s CPU      0.00s WALL (       1 calls)
     init_us_2    :      7.11s CPU      7.68s WALL (   21560 calls)

     DIELECTRIC CONSTANT AND EFFECTIVE CHARGES:
     solve_e      :   2389.30s CPU   2509.64s WALL (       1 calls)
     dielec       :      0.22s CPU      0.64s WALL (       1 calls)
     zstar_eu     :    153.23s CPU    165.32s WALL (       1 calls)

     DYNAMICAL MATRIX:
     dynmat0      :     11.34s CPU     11.64s WALL (       1 calls)
     dynmat_us    :     11.31s CPU     11.58s WALL (       1 calls)
     d2ionq       :      0.00s CPU      0.00s WALL (       1 calls)
     dynmatcc     :      0.02s CPU      0.02s WALL (       1 calls)
     phqscf       :   3835.82s CPU   4017.16s WALL (       1 calls)
     dynmatrix    :      0.01s CPU      0.02s WALL (       1 calls)

     phqscf       :   3835.82s CPU   4017.16s WALL (       1 calls)
     solve_linter :   3815.93s CPU   3995.04s WALL (       2 calls)
     dfpt_kernel  :   5512.63s CPU   5777.69s WALL (       3 calls)
     sth_kernel   :   5456.64s CPU   5706.65s WALL (      18 calls)
     h_prec       :      4.92s CPU      5.24s WALL (   16170 calls)
     apply_dpot_b :    197.09s CPU    206.60s WALL (   34650 calls)
     ortho        :     13.02s CPU     13.70s WALL (   43890 calls)
     cgsolve      :   5447.08s CPU   5639.32s WALL (   43890 calls)
     incdrhoscf   :    324.44s CPU    347.16s WALL (   41580 calls)
                                        0.00s GPU  (   41580 calls)
     dv_of_drho   :      4.40s CPU      4.58s WALL (      54 calls)
     mix_pot      :      0.17s CPU      7.18s WALL (      18 calls)
     drhodv       :     19.89s CPU     21.39s WALL (       2 calls)
     psymdvscf    :     50.18s CPU     51.83s WALL (      36 calls)
     com_dvloc    :     89.82s CPU    103.72s WALL (    9252 calls)
                                        0.00s GPU  (    9252 calls)
     addcore      :      6.68s CPU      8.44s WALL (    4668 calls)
                                        0.00s GPU  (    4668 calls)

     dvqpsi_us    :    267.62s CPU    284.51s WALL (    9240 calls)
                                        0.00s GPU  (    9240 calls)
     dvqpsi_us_on :     48.53s CPU     48.83s WALL (    9240 calls)

     add_vuspsi   :    299.46s CPU    304.68s WALL (  865220 calls)


      General routines
     calbec       :    409.16s CPU    424.55s WALL (  893710 calls)
     fft          :     42.73s CPU     51.79s WALL (   47022 calls)
     ffts         :     30.33s CPU     33.90s WALL (    9361 calls)
     fftw         :   4498.61s CPU   4682.79s WALL (15786138 calls)
     davcio       :     14.80s CPU     66.03s WALL (  173364 calls)
     write_rec    :      0.05s CPU      6.87s WALL (      20 calls)

      Additional routines
     ch_psi       :   5260.02s CPU   5444.64s WALL (  865220 calls)
     last         :    249.65s CPU    257.16s WALL (  865220 calls)
     Hesh         :      9.45s CPU      9.84s WALL (  865220 calls)
     ch_psi_all_k :    235.64s CPU    242.88s WALL (  865220 calls)
                                        0.00s GPU  (  865220 calls)
     h_psi_bgrp   :   4985.44s CPU   5162.06s WALL (  865220 calls)
     h_psi        :   4982.87s CPU   5159.69s WALL (  865220 calls)
     h_psi:pot    :   4965.93s CPU   5142.04s WALL (  865220 calls)
     h_psi:calbec :    365.96s CPU    376.34s WALL (  865220 calls)
     s_psi_bgrp   :      9.96s CPU     10.13s WALL ( 1774330 calls)


     PHONON       :      1h46m CPU      1h52m WALL


   This run was terminated on:  19:28:31  24Feb2026            

=------------------------------------------------------------------------------=
   JOB DONE.
=------------------------------------------------------------------------------=
