[Molden Format]
[FREQ]
    0.00
    0.00
    0.00
  277.42
  277.42
  294.39
[FR-COORD]
Ga             0.00000        0.00000        0.00000
As            -2.67474        2.67474        2.67474
[FR-NORM-COORD]
 vibration     1
   0.00747  -0.17734   0.68447
   0.00747  -0.17734   0.68447
 vibration     2
  -0.01173   0.68438   0.17744
  -0.01173   0.68438   0.17744
 vibration     3
  -0.70697  -0.01323   0.00429
  -0.70697  -0.01323   0.00429
 vibration     4
  -0.38607  -0.62196  -0.00000
   0.35929   0.57881  -0.00000
 vibration     5
   0.62196  -0.38607   0.00000
  -0.57881   0.35929   0.00000
 vibration     6
   0.00000   0.00000  -0.73205
   0.00000  -0.00000   0.68126
