ANIMSTEPS    6
CRYSTAL
PRIMVEC
   -2.830823700    0.000000000    2.830823700
    0.000000000    2.830823700    2.830823700
   -2.830823700    2.830823700    0.000000000
PRIMCOORD    1
      2   1
Ga        0.00000   0.00000   0.00000   0.00075  -0.01773   0.06845
As       -1.41541   1.41541   1.41541   0.00075  -0.01773   0.06845
PRIMCOORD    2
      2   1
Ga        0.00000   0.00000   0.00000  -0.00117   0.06844   0.01774
As       -1.41541   1.41541   1.41541  -0.00117   0.06844   0.01774
PRIMCOORD    3
      2   1
Ga        0.00000   0.00000   0.00000  -0.07070  -0.00132   0.00043
As       -1.41541   1.41541   1.41541  -0.07070  -0.00132   0.00043
PRIMCOORD    4
      2   1
Ga        0.00000   0.00000   0.00000  -0.03861  -0.06220  -0.00000
As       -1.41541   1.41541   1.41541   0.03593   0.05788  -0.00000
PRIMCOORD    5
      2   1
Ga        0.00000   0.00000   0.00000   0.06220  -0.03861   0.00000
As       -1.41541   1.41541   1.41541  -0.05788   0.03593   0.00000
PRIMCOORD    6
      2   1
Ga        0.00000   0.00000   0.00000   0.00000   0.00000  -0.07320
As       -1.41541   1.41541   1.41541   0.00000  -0.00000   0.06813
