
     Program PWSCF v.7.5 starts on 27Jan2026 at 14:13:59 

     This program is part of the open-source Quantum ESPRESSO suite
     for quantum simulation of materials; please cite
         "P. Giannozzi et al., J. Phys.:Condens. Matter 21 395502 (2009);
         "P. Giannozzi et al., J. Phys.:Condens. Matter 29 465901 (2017);
         "P. Giannozzi et al., J. Chem. Phys. 152 154105 (2020);
          URL http://www.quantum-espresso.org", 
     in publications or presentations arising from this work. More details at
     http://www.quantum-espresso.org/quote

     Parallel version (MPI), running on     4 processors

     MPI processes distributed on     1 nodes
     23592 MiB available memory on the printing compute node when the environment starts

     Waiting for input...
     Reading input from standard input

     Current dimensions of program PWSCF are:
     Max number of different atomic species (ntypx) = 10
     Max number of k-points (npk) =  40000
     Max angular momentum in pseudopotentials (lmaxx) =  4
     file Ga.pbe-dn-kjpaw_psl.1.0.0.UPF: wavefunction(s)  4S renormalized
     Message from routine set_cutoff:
     ecutrho < 4*ecutwfc, are you sure?

     R & G space division:  proc/nbgrp/npool/nimage =       4
     Subspace diagonalization in iterative solution of the eigenvalue problem:
     a serial algorithm will be used


     Parallelization info
     --------------------
     sticks:   dense  smooth     PW     G-vecs:    dense   smooth      PW
     Min         148     148     63                 4956     4956    1397
     Max         149     149     64                 4963     4963    1406
     Sum         595     595    253                19843    19843    5599

     Using Slab Decomposition



     bravais-lattice index     =            4
     lattice parameter (alat)  =       6.0263  a.u.
     unit-cell volume          =     308.1662 (a.u.)^3
     number of atoms/cell      =            4
     number of atomic types    =            2
     number of electrons       =        36.00
     number of Kohn-Sham states=           18
     kinetic-energy cutoff     =      90.0000  Ry
     charge density cutoff     =     244.4444  Ry
     scf convergence threshold =      1.0E-06
     mixing beta               =       0.7000
     number of iterations used =            8  plain     mixing
     Exchange-correlation= PBE
                           (   1   4   3   4   0   0   0)

     celldm(1)=   6.026337  celldm(2)=   0.000000  celldm(3)=   1.625902
     celldm(4)=   0.000000  celldm(5)=   0.000000  celldm(6)=   0.000000

     crystal axes: (cart. coord. in units of alat)
               a(1) = (   1.000000   0.000000   0.000000 )  
               a(2) = (  -0.500000   0.866025   0.000000 )  
               a(3) = (   0.000000   0.000000   1.625902 )  

     reciprocal axes: (cart. coord. in units 2 pi/alat)
               b(1) = (  1.000000  0.577350 -0.000000 )  
               b(2) = (  0.000000  1.154701  0.000000 )  
               b(3) = (  0.000000 -0.000000  0.615043 )  


     PseudoPot. # 1 for Ga read from file:
     /home/nico-sachs/source/q-e/SSSP_1.3.0_PBE_efficiency/Ga.pbe-dn-kjpaw_psl.1.0.0.UPF
     MD5 check sum: a27b4342b1af7e5f338de752e9ed7044
     Pseudo is Projector augmented-wave + core cor, Zval = 13.0
     Generated using "atomic" code by A. Dal Corso  v.5.1
     Shape of augmentation charge: PSQ
     Using radial grid of 1205 points,  6 beta functions with: 
                l(1) =   0
                l(2) =   0
                l(3) =   1
                l(4) =   1
                l(5) =   2
                l(6) =   2
     Q(r) pseudized with 0 coefficients 


     PseudoPot. # 2 for N  read from file:
     /home/nico-sachs/source/q-e/SSSP_1.3.0_PBE_efficiency/N.pbe-n-radius_5.UPF
     MD5 check sum: 16739722b17309cd8fe442a2ace49922
     Pseudo is Ultrasoft + core correction, Zval =  5.0
     Generated using "atomic" code by A. Dal Corso  v.5.1
     Using radial grid of 1085 points,  4 beta functions with: 
                l(1) =   0
                l(2) =   0
                l(3) =   1
                l(4) =   1
     Q(r) pseudized with 0 coefficients 


     atomic species   valence    mass     pseudopotential
     Ga               13.00    69.72300     Ga( 1.00)
     N                 5.00    14.00700     N ( 1.00)

     12 Sym. Ops. (no inversion) found ( 6 have fractional translation)



   Cartesian axes

     site n.     atom                  positions (alat units)
         1        Ga     tau(   1) = (  -0.0000000   0.5773503   0.0000000  )
         2        Ga     tau(   2) = (   0.5000000   0.2886751   0.8129508  )
         3        N      tau(   3) = (  -0.0000000   0.5773503   0.6097131  )
         4        N      tau(   4) = (   0.5000000   0.2886751   1.4226638  )

     number of k points=    21
                       cart. coord. in units 2pi/alat
        k(    1) = (   0.0000000   0.0000000   0.0000000), wk =   0.0138889
        k(    2) = (   0.0000000   0.0000000   0.1537608), wk =   0.0277778
        k(    3) = (   0.0000000   0.0000000  -0.3075217), wk =   0.0138889
        k(    4) = (   0.0000000   0.1924501   0.0000000), wk =   0.0833333
        k(    5) = (   0.0000000   0.1924501   0.1537608), wk =   0.1666667
        k(    6) = (   0.0000000   0.1924501  -0.3075217), wk =   0.0833333
        k(    7) = (   0.0000000   0.3849002   0.0000000), wk =   0.0833333
        k(    8) = (   0.0000000   0.3849002   0.1537608), wk =   0.1666667
        k(    9) = (   0.0000000   0.3849002  -0.3075217), wk =   0.0833333
        k(   10) = (   0.0000000  -0.5773503   0.0000000), wk =   0.0416667
        k(   11) = (   0.0000000  -0.5773503   0.1537608), wk =   0.0833333
        k(   12) = (   0.0000000  -0.5773503  -0.3075217), wk =   0.0416667
        k(   13) = (   0.1666667   0.2886751   0.0000000), wk =   0.0833333
        k(   14) = (   0.1666667   0.2886751   0.1537608), wk =   0.1666667
        k(   15) = (   0.1666667   0.2886751  -0.3075217), wk =   0.0833333
        k(   16) = (   0.1666667   0.4811252   0.0000000), wk =   0.1666667
        k(   17) = (   0.1666667   0.4811252   0.1537608), wk =   0.3333333
        k(   18) = (   0.1666667   0.4811252  -0.3075217), wk =   0.1666667
        k(   19) = (   0.3333333   0.5773503   0.0000000), wk =   0.0277778
        k(   20) = (   0.3333333   0.5773503   0.1537608), wk =   0.0555556
        k(   21) = (   0.3333333   0.5773503  -0.3075217), wk =   0.0277778

     Dense  grid:    19843 G-vectors     FFT dimensions: (  30,  30,  50)

     Estimated max dynamical RAM per process >      28.31 MB

     Estimated total dynamical RAM >     113.26 MB

     Check: negative core charge=   -0.000003

     Initial potential from superposition of free atoms

     starting charge      35.9941, renormalised to      36.0000
     Starting wfcs are   26 randomized atomic wfcs
     Checking if some PAW data can be deallocated... 

     total cpu time spent up to now is        1.5 secs

     Self-consistent Calculation

     iteration #  1     ecut=    90.00 Ry     beta= 0.70
     CG style diagonalization
     ethr =  1.00E-02,  avg # of iterations =  2.0

     total cpu time spent up to now is        3.1 secs

     total energy              =    -595.58045687 Ry
     estimated scf accuracy    <       1.11375591 Ry

     iteration #  2     ecut=    90.00 Ry     beta= 0.70
     CG style diagonalization
     ethr =  3.09E-03,  avg # of iterations =  4.8

     total cpu time spent up to now is        6.5 secs

     total energy              =    -596.02827709 Ry
     estimated scf accuracy    <       1.07643662 Ry

     iteration #  3     ecut=    90.00 Ry     beta= 0.70
     CG style diagonalization
     ethr =  2.99E-03,  avg # of iterations =  3.8

     total cpu time spent up to now is        9.3 secs

     total energy              =    -596.21462814 Ry
     estimated scf accuracy    <       0.00934261 Ry

     iteration #  4     ecut=    90.00 Ry     beta= 0.70
     CG style diagonalization
     c_bands:  1 eigenvalues not converged
     c_bands:  1 eigenvalues not converged
     c_bands:  1 eigenvalues not converged
     c_bands:  1 eigenvalues not converged
     c_bands:  2 eigenvalues not converged
     c_bands:  1 eigenvalues not converged
     c_bands:  1 eigenvalues not converged
     c_bands:  1 eigenvalues not converged
     c_bands:  1 eigenvalues not converged
     c_bands:  1 eigenvalues not converged
     ethr =  2.60E-05,  avg # of iterations =  9.9

     total cpu time spent up to now is       16.1 secs

     total energy              =    -596.35953014 Ry
     estimated scf accuracy    <       0.03339201 Ry

     iteration #  5     ecut=    90.00 Ry     beta= 0.70
     CG style diagonalization
     ethr =  2.60E-05,  avg # of iterations =  4.1

     total cpu time spent up to now is       19.1 secs

     total energy              =    -596.36481541 Ry
     estimated scf accuracy    <       0.05016257 Ry

     iteration #  6     ecut=    90.00 Ry     beta= 0.70
     CG style diagonalization
     ethr =  2.60E-05,  avg # of iterations =  5.0

     total cpu time spent up to now is       22.7 secs

     total energy              =    -596.36712213 Ry
     estimated scf accuracy    <       0.12697439 Ry

     iteration #  7     ecut=    90.00 Ry     beta= 0.70
     CG style diagonalization
     ethr =  2.60E-05,  avg # of iterations =  3.9

     total cpu time spent up to now is       25.4 secs

     total energy              =    -596.36878525 Ry
     estimated scf accuracy    <       0.02531953 Ry

     iteration #  8     ecut=    90.00 Ry     beta= 0.70
     CG style diagonalization
     ethr =  2.60E-05,  avg # of iterations =  3.1

     total cpu time spent up to now is       27.7 secs

     total energy              =    -596.37033993 Ry
     estimated scf accuracy    <       0.01895736 Ry

     iteration #  9     ecut=    90.00 Ry     beta= 0.70
     CG style diagonalization
     ethr =  2.60E-05,  avg # of iterations =  3.0

     total cpu time spent up to now is       29.9 secs

     total energy              =    -596.36725368 Ry
     estimated scf accuracy    <       0.02950759 Ry

     iteration # 10     ecut=    90.00 Ry     beta= 0.70
     CG style diagonalization
     ethr =  2.60E-05,  avg # of iterations =  3.5

     total cpu time spent up to now is       32.5 secs

     total energy              =    -596.36844659 Ry
     estimated scf accuracy    <       0.00181557 Ry

     iteration # 11     ecut=    90.00 Ry     beta= 0.70
     CG style diagonalization
     ethr =  5.04E-06,  avg # of iterations =  4.1

     total cpu time spent up to now is       35.3 secs

     total energy              =    -596.36865147 Ry
     estimated scf accuracy    <       0.00315065 Ry

     iteration # 12     ecut=    90.00 Ry     beta= 0.70
     CG style diagonalization
     ethr =  5.04E-06,  avg # of iterations =  3.5

     total cpu time spent up to now is       38.0 secs

     total energy              =    -596.36901366 Ry
     estimated scf accuracy    <       0.00029183 Ry

     iteration # 13     ecut=    90.00 Ry     beta= 0.70
     CG style diagonalization
     ethr =  8.11E-07,  avg # of iterations =  5.2

     total cpu time spent up to now is       41.6 secs

     total energy              =    -596.36925024 Ry
     estimated scf accuracy    <       0.00054553 Ry

     iteration # 14     ecut=    90.00 Ry     beta= 0.70
     CG style diagonalization
     ethr =  8.11E-07,  avg # of iterations =  3.5

     total cpu time spent up to now is       44.3 secs

     total energy              =    -596.36927172 Ry
     estimated scf accuracy    <       0.00041229 Ry

     iteration # 15     ecut=    90.00 Ry     beta= 0.70
     CG style diagonalization
     ethr =  8.11E-07,  avg # of iterations =  3.2

     total cpu time spent up to now is       47.7 secs

     total energy              =    -596.36927034 Ry
     estimated scf accuracy    <       0.00036098 Ry

     iteration # 16     ecut=    90.00 Ry     beta= 0.70
     CG style diagonalization
     ethr =  8.11E-07,  avg # of iterations =  3.0

     total cpu time spent up to now is       50.1 secs

     total energy              =    -596.36927072 Ry
     estimated scf accuracy    <       0.00028470 Ry

     iteration # 17     ecut=    90.00 Ry     beta= 0.70
     CG style diagonalization
     ethr =  7.91E-07,  avg # of iterations =  3.0

     total cpu time spent up to now is       53.2 secs

     total energy              =    -596.36927294 Ry
     estimated scf accuracy    <       0.00024811 Ry

     iteration # 18     ecut=    90.00 Ry     beta= 0.70
     CG style diagonalization
     ethr =  6.89E-07,  avg # of iterations =  3.0

     total cpu time spent up to now is       55.3 secs

     total energy              =    -596.36926178 Ry
     estimated scf accuracy    <       0.00020362 Ry

     iteration # 19     ecut=    90.00 Ry     beta= 0.70
     CG style diagonalization
     ethr =  5.66E-07,  avg # of iterations =  3.1

     total cpu time spent up to now is       57.4 secs

     total energy              =    -596.36923163 Ry
     estimated scf accuracy    <       0.00009528 Ry

     iteration # 20     ecut=    90.00 Ry     beta= 0.70
     CG style diagonalization
     ethr =  2.65E-07,  avg # of iterations =  6.4

     total cpu time spent up to now is       61.4 secs

     total energy              =    -596.36932744 Ry
     estimated scf accuracy    <       0.00006930 Ry

     iteration # 21     ecut=    90.00 Ry     beta= 0.70
     CG style diagonalization
     ethr =  1.92E-07,  avg # of iterations =  4.0

     total cpu time spent up to now is       64.0 secs

     total energy              =    -596.36934499 Ry
     estimated scf accuracy    <       0.00000532 Ry

     iteration # 22     ecut=    90.00 Ry     beta= 0.70
     CG style diagonalization
     ethr =  1.48E-08,  avg # of iterations =  8.6

     total cpu time spent up to now is       68.9 secs

     End of self-consistent calculation

          k = 0.0000 0.0000 0.0000 (  4427 PWs)   bands (ev):

    -6.2582  -5.3483  -3.7545  -3.7336  -3.7336  -3.6716  -3.6716  -3.4854
    -3.4854  -3.3860  -3.3860  -2.1317   2.6389   8.6799   8.6800   9.6655
     9.7277   9.7277

          k = 0.0000 0.0000 0.1538 (  4422 PWs)   bands (ev):

    -6.0826  -5.4212  -3.7299  -3.7299  -3.6975  -3.6856  -3.6856  -3.4659
    -3.4658  -3.3960  -3.3960  -2.6834   3.6938   8.1722   8.8266   8.8266
     9.5675   9.5675

          k = 0.0000 0.0000-0.3075 (  4386 PWs)   bands (ev):

    -5.6964  -5.6964  -3.7127  -3.7127  -3.7127  -3.7127  -3.4264  -3.4263
    -3.4264  -3.4264  -3.4014  -3.4014   5.8643   5.8643   9.1903   9.1903
     9.1903   9.1903

          k = 0.0000 0.1925 0.0000 (  4448 PWs)   bands (ev):

    -6.0066  -5.2901  -3.7215  -3.6999  -3.6571  -3.6221  -3.6211  -3.5065
    -3.4840  -3.4223  -3.3805  -1.9472   3.0233   7.0035   8.0065   8.1729
     9.3782   9.4909

          k = 0.0000 0.1925 0.1538 (  4432 PWs)   bands (ev):

    -5.8557  -5.3397  -3.7121  -3.6921  -3.6633  -3.6361  -3.5978  -3.4691
    -3.4659  -3.4229  -3.3929  -2.4603   3.9356   7.1196   7.4500   8.3497
     9.0127   9.2791

          k = 0.0000 0.1925-0.3075 (  4420 PWs)   bands (ev):

    -5.5426  -5.5426  -3.6875  -3.6875  -3.6676  -3.6676  -3.5104  -3.5104
    -3.4266  -3.4266  -3.1618  -3.1618   5.7002   5.7002   8.0841   8.0841
     8.7972   8.7972

          k = 0.0000 0.3849 0.0000 (  4436 PWs)   bands (ev):

    -5.5456  -5.2116  -3.6841  -3.6650  -3.5870  -3.5238  -3.5220  -3.4881
    -3.4394  -3.3695  -3.0690  -1.5851   3.7568   4.8355   5.8339   7.3423
     8.4348   8.9924

          k = 0.0000 0.3849 0.1538 (  4440 PWs)   bands (ev):

    -5.4607  -5.2251  -3.6917  -3.6430  -3.6191  -3.5404  -3.5233  -3.4714
    -3.4322  -3.3834  -2.9526  -1.9408   3.7686   5.0302   6.0373   7.5553
     8.5369   8.7146

          k = 0.0000 0.3849-0.3075 (  4454 PWs)   bands (ev):

    -5.3055  -5.3055  -3.6755  -3.6755  -3.5901  -3.5901  -3.4894  -3.4894
    -3.4109  -3.4109  -2.5588  -2.5588   4.2530   4.2530   7.6329   7.6329
     8.1036   8.1036

          k = 0.0000-0.5774 0.0000 (  4474 PWs)   bands (ev):

    -5.3661  -5.1907  -3.6873  -3.6632  -3.5690  -3.5254  -3.4777  -3.4713
    -3.3956  -3.3606  -2.2476  -1.7086   3.2799   4.4594   5.4927   6.9806
     7.4905   8.7486

          k = 0.0000-0.5774 0.1538 (  4456 PWs)   bands (ev):

    -5.3149  -5.1909  -3.6998  -3.6342  -3.6115  -3.5284  -3.4996  -3.4310
    -3.3942  -3.3730  -2.1921  -1.8038   3.0123   3.8646   6.4158   7.2066
     8.0193   8.4471

          k = 0.0000-0.5774-0.3075 (  4452 PWs)   bands (ev):

    -5.2266  -5.2267  -3.6894  -3.6894  -3.5643  -3.5643  -3.4550  -3.4549
    -3.3882  -3.3882  -2.0210  -2.0210   3.1293   3.1293   7.7905   7.7905
     7.8167   7.8167

          k = 0.1667 0.2887 0.0000 (  4443 PWs)   bands (ev):

    -5.6498  -5.2269  -3.6889  -3.6661  -3.5976  -3.5737  -3.5254  -3.4645
    -3.4537  -3.4078  -3.2485  -1.6527   3.6605   5.6792   6.0567   7.3257
     8.7177   8.8027

          k = 0.1667 0.2887 0.1538 (  4445 PWs)   bands (ev):

    -5.5470  -5.2476  -3.6715  -3.6684  -3.6119  -3.5985  -3.5044  -3.4984
    -3.4309  -3.4148  -3.1412  -2.0721   4.0814   5.7199   6.2999   7.2877
     8.4090   8.7924

          k = 0.1667 0.2887-0.3075 (  4448 PWs)   bands (ev):

    -5.3538  -5.3538  -3.6514  -3.6514  -3.6241  -3.6241  -3.5203  -3.5203
    -3.4161  -3.4161  -2.7475  -2.7475   4.8886   4.8886   7.6073   7.6073
     7.9175   7.9175

          k = 0.1667 0.4811 0.0000 (  4446 PWs)   bands (ev):

    -5.3553  -5.1957  -3.7100  -3.6276  -3.5396  -3.5246  -3.5034  -3.4830
    -3.4212  -3.3872  -2.4110  -1.5000   3.7176   4.6726   5.5247   6.0989
     7.6994   7.9670

          k = 0.1667 0.4811 0.1538 (  4450 PWs)   bands (ev):

    -5.3052  -5.1931  -3.6797  -3.6447  -3.5904  -3.5263  -3.5043  -3.4620
    -3.4137  -3.4037  -2.3170  -1.6717   3.4529   4.2402   5.9666   6.7340
     7.5285   8.2202

          k = 0.1667 0.4811-0.3075 (  4450 PWs)   bands (ev):

    -5.2219  -5.2219  -3.6543  -3.6543  -3.5841  -3.5842  -3.4824  -3.4824
    -3.4062  -3.4062  -2.0353  -2.0353   3.5824   3.5824   6.6769   6.6769
     8.0619   8.0619

          k = 0.3333 0.5774 0.0000 (  4449 PWs)   bands (ev):

    -5.2317  -5.2317  -3.7391  -3.5319  -3.5319  -3.5136  -3.4997  -3.4997
    -3.4527  -3.4054  -1.7135  -1.7135   4.3961   4.3961   4.4467   6.7179
     6.7179   7.0354

          k = 0.3333 0.5774 0.1538 (  4449 PWs)   bands (ev):

    -5.2090  -5.2090  -3.6989  -3.5854  -3.5854  -3.5225  -3.4591  -3.4591
    -3.4572  -3.4413  -1.7078  -1.7078   3.9085   3.9085   4.7450   6.5297
     7.5207   7.5207

          k = 0.3333 0.5774-0.3075 (  4494 PWs)   bands (ev):

    -5.1858  -5.1858  -3.6178  -3.6178  -3.5999  -3.5999  -3.4645  -3.4645
    -3.4400  -3.4400  -1.7020  -1.7020   3.5650   3.5650   5.5450   5.5450
     8.2351   8.2351

     highest occupied level (ev):     9.7277

!    total energy              =    -596.36936690 Ry
     estimated scf accuracy    <       0.00000051 Ry

     The total energy is the sum of the following terms:
     one-electron contribution =    -181.37704822 Ry
     hartree contribution      =     130.14420868 Ry
     xc contribution           =     -87.87865114 Ry
     ewald contribution        =    -233.28276136 Ry
     one-center paw contrib.   =    -223.97511487 Ry

     convergence has been achieved in  22 iterations

     Forces acting on atoms (cartesian axes, Ry/au):

     atom    1 type  1   force =     0.00000000    0.00000000   -0.00503971
     atom    2 type  1   force =     0.00000000   -0.00000000   -0.00503971
     atom    3 type  2   force =     0.00000000   -0.00000000    0.00503971
     atom    4 type  2   force =    -0.00000000   -0.00000000    0.00503971

     Total force =     0.010079     Total SCF correction =     0.000409


     Computing stress (Cartesian axis) and pressure

          total   stress  (Ry/bohr**3)                   (kbar)     P=       54.10
   0.00032876   0.00000000   0.00000000           48.36        0.00        0.00
   0.00000000   0.00032876   0.00000000            0.00       48.36        0.00
   0.00000000   0.00000000   0.00044570            0.00        0.00       65.57


     Writing all to output data dir /home/nico-sachs/source/q-e/tempdir/gan.save/ :
     XML data file, charge density, pseudopotentials, collected wavefunctions

     init_run     :      1.22s CPU      1.30s WALL (       1 calls)
     electrons    :     64.52s CPU     67.41s WALL (       1 calls)
     forces       :      0.27s CPU      0.27s WALL (       1 calls)
     stress       :      1.14s CPU      1.14s WALL (       1 calls)

     Called by init_run:
     wfcinit      :      0.54s CPU      0.57s WALL (       1 calls)
     potinit      :      0.31s CPU      0.35s WALL (       1 calls)
     hinit0       :      0.31s CPU      0.32s WALL (       1 calls)

     Called by electrons:
     c_bands      :     53.30s CPU     55.31s WALL (      22 calls)
     sum_band     :      3.82s CPU      3.98s WALL (      22 calls)
     v_of_rho     :      0.15s CPU      0.15s WALL (      23 calls)
     newd         :      0.56s CPU      0.72s WALL (      23 calls)
     PAW_pot      :      6.95s CPU      7.56s WALL (      23 calls)
     mix_rho      :      0.04s CPU      0.04s WALL (      22 calls)

     Called by c_bands:
     init_us_2    :      0.57s CPU      0.59s WALL (     987 calls)
     ccgdiagg     :     44.28s CPU     45.95s WALL (     462 calls)
     wfcrot       :      9.12s CPU      9.46s WALL (     462 calls)

     Called by *cgdiagg:
     h_psi        :     28.55s CPU     29.90s WALL (   27932 calls)
     s_psi        :      9.97s CPU     10.29s WALL (   55402 calls)

     Called by h_psi:
     h_psi:calbec :      8.35s CPU      8.73s WALL (   27932 calls)
     vloc_psi     :     14.01s CPU     14.75s WALL (   27932 calls)
                                        0.00s GPU  (   27932 calls)
     add_vuspsi   :      5.83s CPU      6.05s WALL (   27932 calls)
     hs_1psi      :     27.22s CPU     28.44s WALL (   27470 calls)
     s_1psi       :     11.13s CPU     11.43s WALL (   27470 calls)

     General routines
     calbec       :     17.13s CPU     17.74s WALL (   56221 calls)
     fft          :      0.17s CPU      0.17s WALL (     278 calls)
     ffts         :      0.01s CPU      0.01s WALL (      22 calls)
     fftw         :     13.79s CPU     14.58s WALL (   80224 calls)

     Parallel routines

     PWSCF        :   1m 7.36s CPU   1m10.37s WALL


   This run was terminated on:  14:15: 9  27Jan2026            

=------------------------------------------------------------------------------=
   JOB DONE.
=------------------------------------------------------------------------------=
