
     Program PWSCF v.7.5 starts on 27Jan2026 at 14:12:22 

     This program is part of the open-source Quantum ESPRESSO suite
     for quantum simulation of materials; please cite
         "P. Giannozzi et al., J. Phys.:Condens. Matter 21 395502 (2009);
         "P. Giannozzi et al., J. Phys.:Condens. Matter 29 465901 (2017);
         "P. Giannozzi et al., J. Chem. Phys. 152 154105 (2020);
          URL http://www.quantum-espresso.org", 
     in publications or presentations arising from this work. More details at
     http://www.quantum-espresso.org/quote

     Parallel version (MPI), running on     4 processors

     MPI processes distributed on     1 nodes
     23663 MiB available memory on the printing compute node when the environment starts

     Waiting for input...
     Reading input from standard input

     Current dimensions of program PWSCF are:
     Max number of different atomic species (ntypx) = 10
     Max number of k-points (npk) =  40000
     Max angular momentum in pseudopotentials (lmaxx) =  4
     file Ga.pbe-dn-kjpaw_psl.1.0.0.UPF: wavefunction(s)  4S renormalized
     Message from routine set_cutoff:
     ecutrho < 4*ecutwfc, are you sure?

     R & G space division:  proc/nbgrp/npool/nimage =       4
     Subspace diagonalization in iterative solution of the eigenvalue problem:
     a serial algorithm will be used


     Parallelization info
     --------------------
     sticks:   dense  smooth     PW     G-vecs:    dense   smooth      PW
     Min         192     192     63                 7124     7124    1397
     Max         193     193     64                 7131     7131    1406
     Sum         769     769    253                28507    28507    5599

     Using Slab Decomposition



     bravais-lattice index     =            4
     lattice parameter (alat)  =       6.0263  a.u.
     unit-cell volume          =     308.1662 (a.u.)^3
     number of atoms/cell      =            4
     number of atomic types    =            2
     number of electrons       =        36.00
     number of Kohn-Sham states=           18
     kinetic-energy cutoff     =      90.0000  Ry
     charge density cutoff     =     311.1111  Ry
     scf convergence threshold =      1.0E-06
     mixing beta               =       0.7000
     number of iterations used =            8  plain     mixing
     Exchange-correlation= PBE
                           (   1   4   3   4   0   0   0)

     celldm(1)=   6.026337  celldm(2)=   0.000000  celldm(3)=   1.625902
     celldm(4)=   0.000000  celldm(5)=   0.000000  celldm(6)=   0.000000

     crystal axes: (cart. coord. in units of alat)
               a(1) = (   1.000000   0.000000   0.000000 )  
               a(2) = (  -0.500000   0.866025   0.000000 )  
               a(3) = (   0.000000   0.000000   1.625902 )  

     reciprocal axes: (cart. coord. in units 2 pi/alat)
               b(1) = (  1.000000  0.577350 -0.000000 )  
               b(2) = (  0.000000  1.154701  0.000000 )  
               b(3) = (  0.000000 -0.000000  0.615043 )  


     PseudoPot. # 1 for Ga read from file:
     /home/nico-sachs/source/q-e/SSSP_1.3.0_PBE_efficiency/Ga.pbe-dn-kjpaw_psl.1.0.0.UPF
     MD5 check sum: a27b4342b1af7e5f338de752e9ed7044
     Pseudo is Projector augmented-wave + core cor, Zval = 13.0
     Generated using "atomic" code by A. Dal Corso  v.5.1
     Shape of augmentation charge: PSQ
     Using radial grid of 1205 points,  6 beta functions with: 
                l(1) =   0
                l(2) =   0
                l(3) =   1
                l(4) =   1
                l(5) =   2
                l(6) =   2
     Q(r) pseudized with 0 coefficients 


     PseudoPot. # 2 for N  read from file:
     /home/nico-sachs/source/q-e/SSSP_1.3.0_PBE_efficiency/N.pbe-n-radius_5.UPF
     MD5 check sum: 16739722b17309cd8fe442a2ace49922
     Pseudo is Ultrasoft + core correction, Zval =  5.0
     Generated using "atomic" code by A. Dal Corso  v.5.1
     Using radial grid of 1085 points,  4 beta functions with: 
                l(1) =   0
                l(2) =   0
                l(3) =   1
                l(4) =   1
     Q(r) pseudized with 0 coefficients 


     atomic species   valence    mass     pseudopotential
     Ga               13.00    69.72300     Ga( 1.00)
     N                 5.00    14.00700     N ( 1.00)

     12 Sym. Ops. (no inversion) found ( 6 have fractional translation)



   Cartesian axes

     site n.     atom                  positions (alat units)
         1        Ga     tau(   1) = (  -0.0000000   0.5773503   0.0000000  )
         2        Ga     tau(   2) = (   0.5000000   0.2886751   0.8129508  )
         3        N      tau(   3) = (  -0.0000000   0.5773503   0.6097131  )
         4        N      tau(   4) = (   0.5000000   0.2886751   1.4226638  )

     number of k points=    21
                       cart. coord. in units 2pi/alat
        k(    1) = (   0.0000000   0.0000000   0.0000000), wk =   0.0138889
        k(    2) = (   0.0000000   0.0000000   0.1537608), wk =   0.0277778
        k(    3) = (   0.0000000   0.0000000  -0.3075217), wk =   0.0138889
        k(    4) = (   0.0000000   0.1924501   0.0000000), wk =   0.0833333
        k(    5) = (   0.0000000   0.1924501   0.1537608), wk =   0.1666667
        k(    6) = (   0.0000000   0.1924501  -0.3075217), wk =   0.0833333
        k(    7) = (   0.0000000   0.3849002   0.0000000), wk =   0.0833333
        k(    8) = (   0.0000000   0.3849002   0.1537608), wk =   0.1666667
        k(    9) = (   0.0000000   0.3849002  -0.3075217), wk =   0.0833333
        k(   10) = (   0.0000000  -0.5773503   0.0000000), wk =   0.0416667
        k(   11) = (   0.0000000  -0.5773503   0.1537608), wk =   0.0833333
        k(   12) = (   0.0000000  -0.5773503  -0.3075217), wk =   0.0416667
        k(   13) = (   0.1666667   0.2886751   0.0000000), wk =   0.0833333
        k(   14) = (   0.1666667   0.2886751   0.1537608), wk =   0.1666667
        k(   15) = (   0.1666667   0.2886751  -0.3075217), wk =   0.0833333
        k(   16) = (   0.1666667   0.4811252   0.0000000), wk =   0.1666667
        k(   17) = (   0.1666667   0.4811252   0.1537608), wk =   0.3333333
        k(   18) = (   0.1666667   0.4811252  -0.3075217), wk =   0.1666667
        k(   19) = (   0.3333333   0.5773503   0.0000000), wk =   0.0277778
        k(   20) = (   0.3333333   0.5773503   0.1537608), wk =   0.0555556
        k(   21) = (   0.3333333   0.5773503  -0.3075217), wk =   0.0277778

     Dense  grid:    28507 G-vectors     FFT dimensions: (  36,  36,  60)

     Estimated max dynamical RAM per process >      36.79 MB

     Estimated total dynamical RAM >     147.16 MB

     Initial potential from superposition of free atoms

     starting charge      35.9941, renormalised to      36.0000
     Starting wfcs are   26 randomized atomic wfcs
     Checking if some PAW data can be deallocated... 

     total cpu time spent up to now is        1.5 secs

     Self-consistent Calculation

     iteration #  1     ecut=    90.00 Ry     beta= 0.70
     CG style diagonalization
     ethr =  1.00E-02,  avg # of iterations =  2.0

     total cpu time spent up to now is        2.9 secs

     total energy              =    -595.58043500 Ry
     estimated scf accuracy    <       1.11376168 Ry

     iteration #  2     ecut=    90.00 Ry     beta= 0.70
     CG style diagonalization
     ethr =  3.09E-03,  avg # of iterations =  4.8

     total cpu time spent up to now is        5.8 secs

     total energy              =    -596.02825849 Ry
     estimated scf accuracy    <       1.07648752 Ry

     iteration #  3     ecut=    90.00 Ry     beta= 0.70
     CG style diagonalization
     ethr =  2.99E-03,  avg # of iterations =  3.8

     total cpu time spent up to now is        8.0 secs

     total energy              =    -596.21461941 Ry
     estimated scf accuracy    <       0.00934498 Ry

     iteration #  4     ecut=    90.00 Ry     beta= 0.70
     CG style diagonalization
     c_bands:  1 eigenvalues not converged
     c_bands:  1 eigenvalues not converged
     c_bands:  1 eigenvalues not converged
     c_bands:  2 eigenvalues not converged
     c_bands:  1 eigenvalues not converged
     c_bands:  1 eigenvalues not converged
     c_bands:  1 eigenvalues not converged
     c_bands:  1 eigenvalues not converged
     c_bands:  1 eigenvalues not converged
     c_bands:  1 eigenvalues not converged
     ethr =  2.60E-05,  avg # of iterations =  9.9

     total cpu time spent up to now is       13.5 secs

     total energy              =    -596.35948997 Ry
     estimated scf accuracy    <       0.03313091 Ry

     iteration #  5     ecut=    90.00 Ry     beta= 0.70
     CG style diagonalization
     ethr =  2.60E-05,  avg # of iterations =  4.1

     total cpu time spent up to now is       16.3 secs

     total energy              =    -596.36447911 Ry
     estimated scf accuracy    <       0.05025751 Ry

     iteration #  6     ecut=    90.00 Ry     beta= 0.70
     CG style diagonalization
     ethr =  2.60E-05,  avg # of iterations =  5.0

     total cpu time spent up to now is       19.7 secs

     total energy              =    -596.36703297 Ry
     estimated scf accuracy    <       0.11944246 Ry

     iteration #  7     ecut=    90.00 Ry     beta= 0.70
     CG style diagonalization
     ethr =  2.60E-05,  avg # of iterations =  3.8

     total cpu time spent up to now is       22.5 secs

     total energy              =    -596.36878165 Ry
     estimated scf accuracy    <       0.02309223 Ry

     iteration #  8     ecut=    90.00 Ry     beta= 0.70
     CG style diagonalization
     ethr =  2.60E-05,  avg # of iterations =  3.1

     total cpu time spent up to now is       24.7 secs

     total energy              =    -596.37104151 Ry
     estimated scf accuracy    <       0.01935807 Ry

     iteration #  9     ecut=    90.00 Ry     beta= 0.70
     CG style diagonalization
     ethr =  2.60E-05,  avg # of iterations =  3.0

     total cpu time spent up to now is       26.9 secs

     total energy              =    -596.36704236 Ry
     estimated scf accuracy    <       0.03550443 Ry

     iteration # 10     ecut=    90.00 Ry     beta= 0.70
     CG style diagonalization
     ethr =  2.60E-05,  avg # of iterations =  3.4

     total cpu time spent up to now is       29.4 secs

     total energy              =    -596.36867750 Ry
     estimated scf accuracy    <       0.00003326 Ry

     iteration # 11     ecut=    90.00 Ry     beta= 0.70
     CG style diagonalization
     c_bands:  3 eigenvalues not converged
     c_bands:  4 eigenvalues not converged
     c_bands:  4 eigenvalues not converged
     c_bands:  4 eigenvalues not converged
     c_bands:  3 eigenvalues not converged
     c_bands:  3 eigenvalues not converged
     c_bands:  4 eigenvalues not converged
     c_bands:  5 eigenvalues not converged
     c_bands:  3 eigenvalues not converged
     c_bands:  4 eigenvalues not converged
     c_bands:  4 eigenvalues not converged
     c_bands:  3 eigenvalues not converged
     c_bands:  4 eigenvalues not converged
     c_bands:  4 eigenvalues not converged
     c_bands:  4 eigenvalues not converged
     c_bands:  3 eigenvalues not converged
     c_bands:  4 eigenvalues not converged
     ethr =  9.24E-08,  avg # of iterations = 17.1

     total cpu time spent up to now is       41.5 secs

     total energy              =    -596.36916861 Ry
     estimated scf accuracy    <       0.01547583 Ry

     iteration # 12     ecut=    90.00 Ry     beta= 0.70
     CG style diagonalization
     c_bands:  1 eigenvalues not converged
     c_bands:  1 eigenvalues not converged
     c_bands:  2 eigenvalues not converged
     c_bands:  1 eigenvalues not converged
     ethr =  9.24E-08,  avg # of iterations =  9.8

     total cpu time spent up to now is       47.9 secs

     total energy              =    -596.36894430 Ry
     estimated scf accuracy    <       0.00264494 Ry

     iteration # 13     ecut=    90.00 Ry     beta= 0.70
     CG style diagonalization
     c_bands:  1 eigenvalues not converged
     c_bands:  2 eigenvalues not converged
     c_bands:  3 eigenvalues not converged
     c_bands:  2 eigenvalues not converged
     c_bands:  3 eigenvalues not converged
     c_bands:  2 eigenvalues not converged
     c_bands:  1 eigenvalues not converged
     c_bands:  3 eigenvalues not converged
     c_bands:  1 eigenvalues not converged
     c_bands:  2 eigenvalues not converged
     c_bands:  4 eigenvalues not converged
     c_bands:  4 eigenvalues not converged
     c_bands:  4 eigenvalues not converged
     c_bands:  2 eigenvalues not converged
     c_bands:  4 eigenvalues not converged
     c_bands:  3 eigenvalues not converged
     c_bands:  5 eigenvalues not converged
     ethr =  9.24E-08,  avg # of iterations = 14.2

     total cpu time spent up to now is       55.6 secs

     total energy              =    -596.36976810 Ry
     estimated scf accuracy    <       0.00157963 Ry

     iteration # 14     ecut=    90.00 Ry     beta= 0.70
     CG style diagonalization
     ethr =  9.24E-08,  avg # of iterations =  5.6

     total cpu time spent up to now is       58.9 secs

     total energy              =    -596.36962978 Ry
     estimated scf accuracy    <       0.00164927 Ry

     iteration # 15     ecut=    90.00 Ry     beta= 0.70
     CG style diagonalization
     ethr =  9.24E-08,  avg # of iterations =  4.6

     total cpu time spent up to now is       61.6 secs

     total energy              =    -596.36944749 Ry
     estimated scf accuracy    <       0.00134217 Ry

     iteration # 16     ecut=    90.00 Ry     beta= 0.70
     CG style diagonalization
     ethr =  9.24E-08,  avg # of iterations =  4.3

     total cpu time spent up to now is       64.2 secs

     total energy              =    -596.36938464 Ry
     estimated scf accuracy    <       0.00080433 Ry

     iteration # 17     ecut=    90.00 Ry     beta= 0.70
     CG style diagonalization
     ethr =  9.24E-08,  avg # of iterations =  3.9

     total cpu time spent up to now is       66.5 secs

     total energy              =    -596.36952919 Ry
     estimated scf accuracy    <       0.00055674 Ry

     iteration # 18     ecut=    90.00 Ry     beta= 0.70
     CG style diagonalization
     ethr =  9.24E-08,  avg # of iterations =  3.9

     total cpu time spent up to now is       68.9 secs

     total energy              =    -596.36942953 Ry
     estimated scf accuracy    <       0.00108538 Ry

     iteration # 19     ecut=    90.00 Ry     beta= 0.70
     CG style diagonalization
     ethr =  9.24E-08,  avg # of iterations =  3.6

     total cpu time spent up to now is       71.1 secs

     total energy              =    -596.36929111 Ry
     estimated scf accuracy    <       0.00073934 Ry

     iteration # 20     ecut=    90.00 Ry     beta= 0.70
     CG style diagonalization
     ethr =  9.24E-08,  avg # of iterations =  5.5

     total cpu time spent up to now is       74.3 secs

     total energy              =    -596.36936524 Ry
     estimated scf accuracy    <       0.00004214 Ry

     iteration # 21     ecut=    90.00 Ry     beta= 0.70
     CG style diagonalization
     ethr =  9.24E-08,  avg # of iterations =  4.5

     total cpu time spent up to now is       77.2 secs

     total energy              =    -596.36942175 Ry
     estimated scf accuracy    <       0.00014883 Ry

     iteration # 22     ecut=    90.00 Ry     beta= 0.70
     CG style diagonalization
     ethr =  9.24E-08,  avg # of iterations =  3.2

     total cpu time spent up to now is       79.5 secs

     total energy              =    -596.36931115 Ry
     estimated scf accuracy    <       0.00029468 Ry

     iteration # 23     ecut=    90.00 Ry     beta= 0.70
     CG style diagonalization
     ethr =  9.24E-08,  avg # of iterations =  5.9

     total cpu time spent up to now is       83.6 secs

     total energy              =    -596.36936270 Ry
     estimated scf accuracy    <       0.00002173 Ry

     iteration # 24     ecut=    90.00 Ry     beta= 0.70
     CG style diagonalization
     ethr =  6.04E-08,  avg # of iterations =  5.2

     total cpu time spent up to now is       87.1 secs

     total energy              =    -596.36937412 Ry
     estimated scf accuracy    <       0.00001995 Ry

     iteration # 25     ecut=    90.00 Ry     beta= 0.70
     CG style diagonalization
     ethr =  5.54E-08,  avg # of iterations =  4.1

     total cpu time spent up to now is       89.9 secs

     total energy              =    -596.36937383 Ry
     estimated scf accuracy    <       0.00001834 Ry

     iteration # 26     ecut=    90.00 Ry     beta= 0.70
     CG style diagonalization
     ethr =  5.10E-08,  avg # of iterations =  3.5

     total cpu time spent up to now is       92.4 secs

     End of self-consistent calculation

          k = 0.0000 0.0000 0.0000 (  4427 PWs)   bands (ev):

    -6.2591  -5.3497  -3.7563  -3.7354  -3.7354  -3.6734  -3.6734  -3.4874
    -3.4874  -3.3880  -3.3880  -2.1334   2.6383   8.6786   8.6786   9.6638
     9.7261   9.7261

          k = 0.0000 0.0000 0.1538 (  4422 PWs)   bands (ev):

    -6.0835  -5.4224  -3.7316  -3.7316  -3.6993  -3.6874  -3.6874  -3.4679
    -3.4679  -3.3980  -3.3980  -2.6851   3.6930   8.1708   8.8252   8.8253
     9.5660   9.5660

          k = 0.0000 0.0000-0.3075 (  4386 PWs)   bands (ev):

    -5.6975  -5.6975  -3.7145  -3.7145  -3.7145  -3.7145  -3.4284  -3.4284
    -3.4284  -3.4283  -3.4031  -3.4031   5.8632   5.8632   9.1888   9.1888
     9.1888   9.1888

          k = 0.0000 0.1925 0.0000 (  4448 PWs)   bands (ev):

    -6.0075  -5.2915  -3.7234  -3.7017  -3.6589  -3.6239  -3.6229  -3.5085
    -3.4860  -3.4243  -3.3825  -1.9489   3.0227   7.0025   8.0053   8.1717
     9.3766   9.4894

          k = 0.0000 0.1925 0.1538 (  4432 PWs)   bands (ev):

    -5.8567  -5.3410  -3.7139  -3.6939  -3.6651  -3.6379  -3.5995  -3.4710
    -3.4679  -3.4249  -3.3949  -2.4619   3.9348   7.1185   7.4489   8.3485
     9.0112   9.2777

          k = 0.0000 0.1925-0.3075 (  4420 PWs)   bands (ev):

    -5.5438  -5.5438  -3.6893  -3.6893  -3.6694  -3.6694  -3.5123  -3.5123
    -3.4286  -3.4286  -3.1635  -3.1635   5.6991   5.6991   8.0829   8.0829
     8.7958   8.7958

          k = 0.0000 0.3849 0.0000 (  4436 PWs)   bands (ev):

    -5.5468  -5.2131  -3.6860  -3.6668  -3.5889  -3.5257  -3.5238  -3.4900
    -3.4413  -3.3715  -3.0707  -1.5868   3.7562   4.8347   5.8330   7.3412
     8.4334   8.9910

          k = 0.0000 0.3849 0.1538 (  4440 PWs)   bands (ev):

    -5.4619  -5.2265  -3.6935  -3.6448  -3.6210  -3.5422  -3.5252  -3.4734
    -3.4341  -3.3854  -2.9542  -1.9425   3.7680   5.0294   6.0364   7.5542
     8.5355   8.7133

          k = 0.0000 0.3849-0.3075 (  4454 PWs)   bands (ev):

    -5.3068  -5.3068  -3.6774  -3.6774  -3.5919  -3.5919  -3.4914  -3.4914
    -3.4129  -3.4129  -2.5604  -2.5604   4.2522   4.2522   7.6317   7.6317
     8.1024   8.1024

          k = 0.0000-0.5774 0.0000 (  4474 PWs)   bands (ev):

    -5.3674  -5.1921  -3.6892  -3.6651  -3.5709  -3.5274  -3.4795  -3.4732
    -3.3976  -3.3626  -2.2492  -1.7102   3.2794   4.4587   5.4918   6.9796
     7.4894   8.7473

          k = 0.0000-0.5774 0.1538 (  4456 PWs)   bands (ev):

    -5.3163  -5.1923  -3.7017  -3.6361  -3.6135  -3.5304  -3.5014  -3.4329
    -3.3962  -3.3750  -2.1938  -1.8055   3.0118   3.8640   6.4148   7.2056
     8.0181   8.4458

          k = 0.0000-0.5774-0.3075 (  4452 PWs)   bands (ev):

    -5.2280  -5.2280  -3.6913  -3.6913  -3.5661  -3.5661  -3.4569  -3.4569
    -3.3902  -3.3902  -2.0226  -2.0226   3.1288   3.1288   7.7893   7.7893
     7.8155   7.8155

          k = 0.1667 0.2887 0.0000 (  4443 PWs)   bands (ev):

    -5.6509  -5.2283  -3.6907  -3.6680  -3.5995  -3.5755  -3.5274  -3.4665
    -3.4557  -3.4097  -3.2502  -1.6544   3.6599   5.6783   6.0557   7.3247
     8.7163   8.8013

          k = 0.1667 0.2887 0.1538 (  4445 PWs)   bands (ev):

    -5.5482  -5.2490  -3.6734  -3.6702  -3.6138  -3.6003  -3.5063  -3.5004
    -3.4329  -3.4168  -3.1429  -2.0737   4.0807   5.7189   6.2990   7.2867
     8.4077   8.7910

          k = 0.1667 0.2887-0.3075 (  4448 PWs)   bands (ev):

    -5.3551  -5.3551  -3.6532  -3.6532  -3.6259  -3.6258  -3.5222  -3.5222
    -3.4181  -3.4181  -2.7491  -2.7491   4.8877   4.8877   7.6061   7.6061
     7.9164   7.9164

          k = 0.1667 0.4811 0.0000 (  4446 PWs)   bands (ev):

    -5.3566  -5.1972  -3.7119  -3.6295  -3.5415  -3.5265  -3.5052  -3.4849
    -3.4232  -3.3892  -2.4127  -1.5017   3.7171   4.6718   5.5239   6.0981
     7.6982   7.9657

          k = 0.1667 0.4811 0.1538 (  4450 PWs)   bands (ev):

    -5.3065  -5.1945  -3.6816  -3.6465  -3.5923  -3.5281  -3.5062  -3.4640
    -3.4157  -3.4057  -2.3187  -1.6734   3.4524   4.2395   5.9658   6.7330
     7.5274   8.2189

          k = 0.1667 0.4811-0.3075 (  4450 PWs)   bands (ev):

    -5.2233  -5.2233  -3.6562  -3.6562  -3.5860  -3.5860  -3.4843  -3.4843
    -3.4082  -3.4082  -2.0369  -2.0369   3.5818   3.5818   6.6759   6.6759
     8.0606   8.0606

          k = 0.3333 0.5774 0.0000 (  4449 PWs)   bands (ev):

    -5.2331  -5.2331  -3.7409  -3.5338  -3.5338  -3.5154  -3.5017  -3.5017
    -3.4547  -3.4074  -1.7152  -1.7152   4.3956   4.3956   4.4460   6.7168
     6.7168   7.0343

          k = 0.3333 0.5774 0.1538 (  4449 PWs)   bands (ev):

    -5.2105  -5.2105  -3.7008  -3.5873  -3.5873  -3.5243  -3.4610  -3.4610
    -3.4591  -3.4433  -1.7095  -1.7095   3.9080   3.9080   4.7443   6.5288
     7.5195   7.5195

          k = 0.3333 0.5774-0.3075 (  4494 PWs)   bands (ev):

    -5.1872  -5.1872  -3.6197  -3.6197  -3.6018  -3.6018  -3.4664  -3.4664
    -3.4420  -3.4420  -1.7037  -1.7037   3.5645   3.5645   5.5442   5.5442
     8.2338   8.2338

     highest occupied level (ev):     9.7261

!    total energy              =    -596.36937609 Ry
     estimated scf accuracy    <       0.00000014 Ry

     The total energy is the sum of the following terms:
     one-electron contribution =    -181.38788939 Ry
     hartree contribution      =     130.17151832 Ry
     xc contribution           =     -87.88362679 Ry
     ewald contribution        =    -233.28276133 Ry
     one-center paw contrib.   =    -223.98661689 Ry

     convergence has been achieved in  26 iterations

     Forces acting on atoms (cartesian axes, Ry/au):

     atom    1 type  1   force =     0.00000000    0.00000000   -0.00482119
     atom    2 type  1   force =     0.00000000    0.00000000   -0.00482119
     atom    3 type  2   force =     0.00000000    0.00000000    0.00482119
     atom    4 type  2   force =     0.00000000    0.00000000    0.00482119

     Total force =     0.009642     Total SCF correction =     0.000018


     Computing stress (Cartesian axis) and pressure

          total   stress  (Ry/bohr**3)                   (kbar)     P=       53.22
   0.00032321  -0.00000000  -0.00000000           47.55       -0.00       -0.00
  -0.00000000   0.00032321  -0.00000000           -0.00       47.55       -0.00
   0.00000000   0.00000000   0.00043901            0.00        0.00       64.58


     Writing all to output data dir /home/nico-sachs/source/q-e/tempdir/gan.save/ :
     XML data file, charge density, pseudopotentials, collected wavefunctions

     init_run     :      1.24s CPU      1.30s WALL (       1 calls)
     electrons    :     88.10s CPU     90.93s WALL (       1 calls)
     forces       :      0.33s CPU      0.33s WALL (       1 calls)
     stress       :      1.85s CPU      1.87s WALL (       1 calls)

     Called by init_run:
     wfcinit      :      0.58s CPU      0.60s WALL (       1 calls)
     potinit      :      0.24s CPU      0.27s WALL (       1 calls)
     hinit0       :      0.35s CPU      0.35s WALL (       1 calls)

     Called by electrons:
     c_bands      :     75.92s CPU     78.56s WALL (      26 calls)
     sum_band     :      4.69s CPU      4.86s WALL (      26 calls)
     v_of_rho     :      0.25s CPU      0.25s WALL (      27 calls)
     newd         :      0.80s CPU      0.82s WALL (      27 calls)
     PAW_pot      :      6.62s CPU      6.65s WALL (      27 calls)
     mix_rho      :      0.06s CPU      0.06s WALL (      26 calls)

     Called by c_bands:
     init_us_2    :      0.57s CPU      0.58s WALL (    1155 calls)
     ccgdiagg     :     65.60s CPU     67.92s WALL (     550 calls)
     wfcrot       :     10.40s CPU     10.73s WALL (     550 calls)

     Called by *cgdiagg:
     h_psi        :     43.60s CPU     45.34s WALL (   44485 calls)
     s_psi        :     13.23s CPU     13.65s WALL (   88420 calls)

     Called by h_psi:
     h_psi:calbec :     10.93s CPU     11.39s WALL (   44485 calls)
     vloc_psi     :     24.74s CPU     25.75s WALL (   44485 calls)
                                        0.00s GPU  (   44485 calls)
     add_vuspsi   :      7.47s CPU      7.74s WALL (   44485 calls)
     hs_1psi      :     42.80s CPU     44.48s WALL (   43935 calls)
     s_1psi       :     15.14s CPU     15.57s WALL (   43935 calls)

     General routines
     calbec       :     22.44s CPU     23.21s WALL (   89323 calls)
     fft          :      0.31s CPU      0.32s WALL (     322 calls)
     ffts         :      0.01s CPU      0.01s WALL (      26 calls)
     fftw         :     23.55s CPU     24.57s WALL (  117834 calls)

     Parallel routines

     PWSCF        :   1m31.70s CPU   1m34.67s WALL


   This run was terminated on:  14:13:56  27Jan2026            

=------------------------------------------------------------------------------=
   JOB DONE.
=------------------------------------------------------------------------------=
