
     Program PWSCF v.7.5 starts on 24Feb2026 at 17:40:30 
        Git branch: develop
        Last git commit: 797f00f1d3f390f642411209b167af6668f3cb83
        Last git commit date: Mon Dec 8 18:25:28 2025 +0000
        Last git commit subject: Merge branch 'uniform_uv' into 'develop'

     This program is part of the open-source Quantum ESPRESSO suite
     for quantum simulation of materials; please cite
         "P. Giannozzi et al., J. Phys.:Condens. Matter 21 395502 (2009);
         "P. Giannozzi et al., J. Phys.:Condens. Matter 29 465901 (2017);
         "P. Giannozzi et al., J. Chem. Phys. 152 154105 (2020);
          URL http://www.quantum-espresso.org", 
     in publications or presentations arising from this work. More details at
     http://www.quantum-espresso.org/quote

     Parallel version (MPI), running on    24 processors

     MPI processes distributed on     1 nodes
     95286 MiB available memory on the printing compute node when the environment starts

     Waiting for input...
     Reading input from standard input

     Current dimensions of program PWSCF are:
     Max number of different atomic species (ntypx) = 10
     Max number of k-points (npk) =  40000
     Max angular momentum in pseudopotentials (lmaxx) =  4

     File /home/sachs/software/q-e/tempdir/gan.update deleted, as requested

     R & G space division:  proc/nbgrp/npool/nimage =      24
     Subspace diagonalization in iterative solution of the eigenvalue problem:
     a serial algorithm will be used


     Parallelization info
     --------------------
     sticks:   dense  smooth     PW     G-vecs:    dense   smooth      PW
     Min          62      41     12                 3170     1725     288
     Max          63      42     13                 3175     1730     297
     Sum        1507    1003    301                76139    41469    7031

     Using Slab Decomposition



     bravais-lattice index     =            4
     lattice parameter (alat)  =       6.0162  a.u.
     unit-cell volume          =     306.7178 (a.u.)^3
     number of atoms/cell      =            4
     number of atomic types    =            2
     number of electrons       =        36.00
     number of Kohn-Sham states=           20
     kinetic-energy cutoff     =     100.0000  Ry
     charge density cutoff     =     600.0000  Ry
     scf convergence threshold =      1.0E-06
     mixing beta               =       0.7000
     number of iterations used =            8  plain     mixing
     Exchange-correlation= PBESOL
                           (   1   4  10   8   0   0   0)

     celldm(1)=   6.016209  celldm(2)=   0.000000  celldm(3)=   1.626446
     celldm(4)=   0.000000  celldm(5)=   0.000000  celldm(6)=   0.000000

     crystal axes: (cart. coord. in units of alat)
               a(1) = (   1.000000   0.000000   0.000000 )  
               a(2) = (  -0.500000   0.866025   0.000000 )  
               a(3) = (   0.000000   0.000000   1.626446 )  

     reciprocal axes: (cart. coord. in units 2 pi/alat)
               b(1) = (  1.000000  0.577350 -0.000000 )  
               b(2) = (  0.000000  1.154701  0.000000 )  
               b(3) = (  0.000000 -0.000000  0.614838 )  


     PseudoPot. # 1 for Ga read from file:
     /home/sachs/software/q-e/Pseudofolder/nc-sr-04_pbesol_standard_upf/Ga.upf
     MD5 check sum: 3b2828b26f3ae6b9eab8bf4a0fe74f9e
     Pseudo is Norm-conserving + core correction, Zval = 13.0
     Generated using ONCVPSP code by D. R. Hamann
     Using radial grid of 1902 points,  6 beta functions with: 
                l(1) =   0
                l(2) =   0
                l(3) =   1
                l(4) =   1
                l(5) =   2
                l(6) =   2

     PseudoPot. # 2 for N  read from file:
     /home/sachs/software/q-e/Pseudofolder/nc-sr-04_pbesol_standard_upf/N.upf
     MD5 check sum: 707446d8d13ad7070fc4441e6fbba7f1
     Pseudo is Norm-conserving + core correction, Zval =  5.0
     Generated using ONCVPSP code by D. R. Hamann
     Using radial grid of 1058 points,  4 beta functions with: 
                l(1) =   0
                l(2) =   0
                l(3) =   1
                l(4) =   1

     atomic species   valence    mass     pseudopotential
     Ga               13.00    69.72300     Ga( 1.00)
     N                 5.00    14.00700     N ( 1.00)

     12 Sym. Ops. (no inversion) found ( 6 have fractional translation)


                                    s                        frac. trans.

      isym =  1     identity                                     

 cryst.   s( 1) = (     1          0          0      )
                  (     0          1          0      )
                  (     0          0          1      )

 cart.    s( 1) = (  1.0000000  0.0000000  0.0000000 )
                  (  0.0000000  1.0000000  0.0000000 )
                  (  0.0000000  0.0000000  1.0000000 )


      isym =  2     180 deg rotation - cart. axis [0,0,1]        

 cryst.   s( 2) = (    -1          0          0      )    f =(  0.0000000 )
                  (     0         -1          0      )       (  0.0000000 )
                  (     0          0          1      )       ( -0.5000000 )

 cart.    s( 2) = ( -1.0000000  0.0000000  0.0000000 )    f =(  0.0000000 )
                  (  0.0000000 -1.0000000  0.0000000 )       (  0.0000000 )
                  (  0.0000000  0.0000000  1.0000000 )       ( -0.8132228 )


      isym =  3      60 deg rotation - cryst. axis [0,0,1]       

 cryst.   s( 3) = (     1          1          0      )    f =(  0.0000000 )
                  (    -1          0          0      )       (  0.0000000 )
                  (     0          0          1      )       ( -0.5000000 )

 cart.    s( 3) = (  0.5000000 -0.8660254  0.0000000 )    f =(  0.0000000 )
                  (  0.8660254  0.5000000  0.0000000 )       (  0.0000000 )
                  (  0.0000000  0.0000000  1.0000000 )       ( -0.8132228 )


      isym =  4      60 deg rotation - cryst. axis [0,0,-1]      

 cryst.   s( 4) = (     0         -1          0      )    f =(  0.0000000 )
                  (     1          1          0      )       ( -0.0000000 )
                  (     0          0          1      )       ( -0.5000000 )

 cart.    s( 4) = (  0.5000000  0.8660254  0.0000000 )    f =(  0.0000000 )
                  ( -0.8660254  0.5000000  0.0000000 )       ( -0.0000000 )
                  (  0.0000000  0.0000000  1.0000000 )       ( -0.8132228 )


      isym =  5     120 deg rotation - cryst. axis [0,0,1]       

 cryst.   s( 5) = (     0          1          0      )
                  (    -1         -1          0      )
                  (     0          0          1      )

 cart.    s( 5) = ( -0.5000000 -0.8660254  0.0000000 )
                  (  0.8660254 -0.5000000  0.0000000 )
                  (  0.0000000  0.0000000  1.0000000 )


      isym =  6     120 deg rotation - cryst. axis [0,0,-1]      

 cryst.   s( 6) = (    -1         -1          0      )
                  (     1          0          0      )
                  (     0          0          1      )

 cart.    s( 6) = ( -0.5000000  0.8660254  0.0000000 )
                  ( -0.8660254 -0.5000000  0.0000000 )
                  (  0.0000000  0.0000000  1.0000000 )


      isym =  7     inv. 180 deg rotation - cart. axis [0,1,0]   

 cryst.   s( 7) = (     1          0          0      )    f =(  0.0000000 )
                  (    -1         -1          0      )       (  0.0000000 )
                  (     0          0          1      )       ( -0.5000000 )

 cart.    s( 7) = (  1.0000000  0.0000000  0.0000000 )    f =(  0.0000000 )
                  (  0.0000000 -1.0000000  0.0000000 )       (  0.0000000 )
                  (  0.0000000  0.0000000  1.0000000 )       ( -0.8132228 )


      isym =  8     inv. 180 deg rotation - cart. axis [1,0,0]   

 cryst.   s( 8) = (    -1          0          0      )
                  (     1          1          0      )
                  (     0          0          1      )

 cart.    s( 8) = ( -1.0000000  0.0000000  0.0000000 )
                  (  0.0000000  1.0000000  0.0000000 )
                  (  0.0000000  0.0000000  1.0000000 )


      isym =  9     inv. 180 deg rotation - cryst. axis [1,-1,0] 

 cryst.   s( 9) = (     0          1          0      )    f =(  0.0000000 )
                  (     1          0          0      )       (  0.0000000 )
                  (     0          0          1      )       ( -0.5000000 )

 cart.    s( 9) = ( -0.5000000  0.8660254  0.0000000 )    f =( -0.0000000 )
                  (  0.8660254  0.5000000  0.0000000 )       (  0.0000000 )
                  (  0.0000000  0.0000000  1.0000000 )       ( -0.8132228 )


      isym = 10     inv. 180 deg rotation - cryst. axis [2,1,0]  

 cryst.   s(10) = (    -1         -1          0      )    f =(  0.0000000 )
                  (     0          1          0      )       ( -0.0000000 )
                  (     0          0          1      )       ( -0.5000000 )

 cart.    s(10) = ( -0.5000000 -0.8660254  0.0000000 )    f =(  0.0000000 )
                  ( -0.8660254  0.5000000  0.0000000 )       ( -0.0000000 )
                  (  0.0000000  0.0000000  1.0000000 )       ( -0.8132228 )


      isym = 11     inv. 180 deg rotation - cryst. axis [0,1,0]  

 cryst.   s(11) = (     1          1          0      )
                  (     0         -1          0      )
                  (     0          0          1      )

 cart.    s(11) = (  0.5000000  0.8660254  0.0000000 )
                  (  0.8660254 -0.5000000  0.0000000 )
                  (  0.0000000  0.0000000  1.0000000 )


      isym = 12     inv. 180 deg rotation - cryst. axis [1,1,0]  

 cryst.   s(12) = (     0         -1          0      )
                  (    -1          0          0      )
                  (     0          0          1      )

 cart.    s(12) = (  0.5000000 -0.8660254  0.0000000 )
                  ( -0.8660254 -0.5000000  0.0000000 )
                  (  0.0000000  0.0000000  1.0000000 )


     point group C_6v (6mm) 
     there are  6 classes
     the character table:

       E     2C6   2C3   C2    3s_v  3s_d 
A_1    1.00  1.00  1.00  1.00  1.00  1.00
A_2    1.00  1.00  1.00  1.00 -1.00 -1.00
B_1    1.00 -1.00  1.00 -1.00  1.00 -1.00
B_2    1.00 -1.00  1.00 -1.00 -1.00  1.00
E_1    2.00  1.00 -1.00 -2.00  0.00  0.00
E_2    2.00 -1.00 -1.00  2.00  0.00  0.00

     the symmetry operations in each class and the name of the first element:

     E        1
          identity                                               
     2C6      3    4
           60 deg rotation - cryst. axis [0,0,1]                 
     2C3      5    6
          120 deg rotation - cryst. axis [0,0,1]                 
     C2       2
          180 deg rotation - cart. axis [0,0,1]                  
     3s_v     8   12   11
          inv. 180 deg rotation - cart. axis [1,0,0]             
     3s_d     7    9   10
          inv. 180 deg rotation - cart. axis [0,1,0]             

   Cartesian axes

     site n.     atom                  positions (alat units)
         1        Ga     tau(   1) = (  -0.0000000   0.5773503   0.0000000  )
         2        Ga     tau(   2) = (   0.5000000   0.2886751   0.8132228  )
         3        N      tau(   3) = (  -0.0000000   0.5773503   0.6099171  )
         4        N      tau(   4) = (   0.5000000   0.2886751   1.4231399  )

   Crystallographic axes

     site n.     atom                  positions (cryst. coord.)
         1        Ga     tau(   1) = (  0.3333333  0.6666667  0.0000000  )
         2        Ga     tau(   2) = (  0.6666667  0.3333333  0.5000000  )
         3        N      tau(   3) = (  0.3333333  0.6666667  0.3750000  )
         4        N      tau(   4) = (  0.6666667  0.3333333  0.8750000  )

     number of k points=  1248
                       cart. coord. in units 2pi/alat
        k(    1) = (   0.0208333   0.0360844   0.0204946), wk =   0.0009259
        k(    2) = (   0.0208333   0.0360844   0.0614838), wk =   0.0009259
        k(    3) = (   0.0208333   0.0360844   0.1024729), wk =   0.0009259
        k(    4) = (   0.0208333   0.0360844   0.1434621), wk =   0.0009259
        k(    5) = (   0.0208333   0.0360844   0.1844513), wk =   0.0009259
        k(    6) = (   0.0208333   0.0360844   0.2254405), wk =   0.0009259
        k(    7) = (   0.0208333   0.0360844   0.2664297), wk =   0.0009259
        k(    8) = (   0.0208333   0.0360844  -0.3074188), wk =   0.0004630
        k(    9) = (   0.0208333   0.0841969   0.0204946), wk =   0.0018519
        k(   10) = (   0.0208333   0.0841969   0.0614838), wk =   0.0018519
        k(   11) = (   0.0208333   0.0841969   0.1024729), wk =   0.0018519
        k(   12) = (   0.0208333   0.0841969   0.1434621), wk =   0.0018519
        k(   13) = (   0.0208333   0.0841969   0.1844513), wk =   0.0018519
        k(   14) = (   0.0208333   0.0841969   0.2254405), wk =   0.0018519
        k(   15) = (   0.0208333   0.0841969   0.2664297), wk =   0.0018519
        k(   16) = (   0.0208333   0.0841969  -0.3074188), wk =   0.0009259
        k(   17) = (   0.0208333   0.1323094   0.0204946), wk =   0.0018519
        k(   18) = (   0.0208333   0.1323094   0.0614838), wk =   0.0018519
        k(   19) = (   0.0208333   0.1323094   0.1024729), wk =   0.0018519
        k(   20) = (   0.0208333   0.1323094   0.1434621), wk =   0.0018519
        k(   21) = (   0.0208333   0.1323094   0.1844513), wk =   0.0018519
        k(   22) = (   0.0208333   0.1323094   0.2254405), wk =   0.0018519
        k(   23) = (   0.0208333   0.1323094   0.2664297), wk =   0.0018519
        k(   24) = (   0.0208333   0.1323094  -0.3074188), wk =   0.0009259
        k(   25) = (   0.0208333   0.1804220   0.0204946), wk =   0.0018519
        k(   26) = (   0.0208333   0.1804220   0.0614838), wk =   0.0018519
        k(   27) = (   0.0208333   0.1804220   0.1024729), wk =   0.0018519
        k(   28) = (   0.0208333   0.1804220   0.1434621), wk =   0.0018519
        k(   29) = (   0.0208333   0.1804220   0.1844513), wk =   0.0018519
        k(   30) = (   0.0208333   0.1804220   0.2254405), wk =   0.0018519
        k(   31) = (   0.0208333   0.1804220   0.2664297), wk =   0.0018519
        k(   32) = (   0.0208333   0.1804220  -0.3074188), wk =   0.0009259
        k(   33) = (   0.0208333   0.2285345   0.0204946), wk =   0.0018519
        k(   34) = (   0.0208333   0.2285345   0.0614838), wk =   0.0018519
        k(   35) = (   0.0208333   0.2285345   0.1024729), wk =   0.0018519
        k(   36) = (   0.0208333   0.2285345   0.1434621), wk =   0.0018519
        k(   37) = (   0.0208333   0.2285345   0.1844513), wk =   0.0018519
        k(   38) = (   0.0208333   0.2285345   0.2254405), wk =   0.0018519
        k(   39) = (   0.0208333   0.2285345   0.2664297), wk =   0.0018519
        k(   40) = (   0.0208333   0.2285345  -0.3074188), wk =   0.0009259
        k(   41) = (   0.0208333   0.2766470   0.0204946), wk =   0.0018519
        k(   42) = (   0.0208333   0.2766470   0.0614838), wk =   0.0018519
        k(   43) = (   0.0208333   0.2766470   0.1024729), wk =   0.0018519
        k(   44) = (   0.0208333   0.2766470   0.1434621), wk =   0.0018519
        k(   45) = (   0.0208333   0.2766470   0.1844513), wk =   0.0018519
        k(   46) = (   0.0208333   0.2766470   0.2254405), wk =   0.0018519
        k(   47) = (   0.0208333   0.2766470   0.2664297), wk =   0.0018519
        k(   48) = (   0.0208333   0.2766470  -0.3074188), wk =   0.0009259
        k(   49) = (   0.0208333   0.3247595   0.0204946), wk =   0.0018519
        k(   50) = (   0.0208333   0.3247595   0.0614838), wk =   0.0018519
        k(   51) = (   0.0208333   0.3247595   0.1024729), wk =   0.0018519
        k(   52) = (   0.0208333   0.3247595   0.1434621), wk =   0.0018519
        k(   53) = (   0.0208333   0.3247595   0.1844513), wk =   0.0018519
        k(   54) = (   0.0208333   0.3247595   0.2254405), wk =   0.0018519
        k(   55) = (   0.0208333   0.3247595   0.2664297), wk =   0.0018519
        k(   56) = (   0.0208333   0.3247595  -0.3074188), wk =   0.0009259
        k(   57) = (   0.0208333   0.3728720   0.0204946), wk =   0.0018519
        k(   58) = (   0.0208333   0.3728720   0.0614838), wk =   0.0018519
        k(   59) = (   0.0208333   0.3728720   0.1024729), wk =   0.0018519
        k(   60) = (   0.0208333   0.3728720   0.1434621), wk =   0.0018519
        k(   61) = (   0.0208333   0.3728720   0.1844513), wk =   0.0018519
        k(   62) = (   0.0208333   0.3728720   0.2254405), wk =   0.0018519
        k(   63) = (   0.0208333   0.3728720   0.2664297), wk =   0.0018519
        k(   64) = (   0.0208333   0.3728720  -0.3074188), wk =   0.0009259
        k(   65) = (   0.0208333   0.4209846   0.0204946), wk =   0.0018519
        k(   66) = (   0.0208333   0.4209846   0.0614838), wk =   0.0018519
        k(   67) = (   0.0208333   0.4209846   0.1024729), wk =   0.0018519
        k(   68) = (   0.0208333   0.4209846   0.1434621), wk =   0.0018519
        k(   69) = (   0.0208333   0.4209846   0.1844513), wk =   0.0018519
        k(   70) = (   0.0208333   0.4209846   0.2254405), wk =   0.0018519
        k(   71) = (   0.0208333   0.4209846   0.2664297), wk =   0.0018519
        k(   72) = (   0.0208333   0.4209846  -0.3074188), wk =   0.0009259
        k(   73) = (   0.0208333   0.4690971   0.0204946), wk =   0.0018519
        k(   74) = (   0.0208333   0.4690971   0.0614838), wk =   0.0018519
        k(   75) = (   0.0208333   0.4690971   0.1024729), wk =   0.0018519
        k(   76) = (   0.0208333   0.4690971   0.1434621), wk =   0.0018519
        k(   77) = (   0.0208333   0.4690971   0.1844513), wk =   0.0018519
        k(   78) = (   0.0208333   0.4690971   0.2254405), wk =   0.0018519
        k(   79) = (   0.0208333   0.4690971   0.2664297), wk =   0.0018519
        k(   80) = (   0.0208333   0.4690971  -0.3074188), wk =   0.0009259
        k(   81) = (   0.0208333   0.5172096   0.0204946), wk =   0.0018519
        k(   82) = (   0.0208333   0.5172096   0.0614838), wk =   0.0018519
        k(   83) = (   0.0208333   0.5172096   0.1024729), wk =   0.0018519
        k(   84) = (   0.0208333   0.5172096   0.1434621), wk =   0.0018519
        k(   85) = (   0.0208333   0.5172096   0.1844513), wk =   0.0018519
        k(   86) = (   0.0208333   0.5172096   0.2254405), wk =   0.0018519
        k(   87) = (   0.0208333   0.5172096   0.2664297), wk =   0.0018519
        k(   88) = (   0.0208333   0.5172096  -0.3074188), wk =   0.0009259
        k(   89) = (   0.0208333   0.5653221   0.0204946), wk =   0.0018519
        k(   90) = (   0.0208333   0.5653221   0.0614838), wk =   0.0018519
        k(   91) = (   0.0208333   0.5653221   0.1024729), wk =   0.0018519
        k(   92) = (   0.0208333   0.5653221   0.1434621), wk =   0.0018519
        k(   93) = (   0.0208333   0.5653221   0.1844513), wk =   0.0018519
        k(   94) = (   0.0208333   0.5653221   0.2254405), wk =   0.0018519
        k(   95) = (   0.0208333   0.5653221   0.2664297), wk =   0.0018519
        k(   96) = (   0.0208333   0.5653221  -0.3074188), wk =   0.0009259
        k(   97) = (   0.0208333  -0.5412659   0.0204946), wk =   0.0018519
        k(   98) = (   0.0208333  -0.5412659   0.0614838), wk =   0.0018519
        k(   99) = (   0.0208333  -0.5412659   0.1024729), wk =   0.0018519
        k(  100) = (   0.0208333  -0.5412659   0.1434621), wk =   0.0018519
        k(  101) = (   0.0208333  -0.5412659   0.1844513), wk =   0.0018519
        k(  102) = (   0.0208333  -0.5412659   0.2254405), wk =   0.0018519
        k(  103) = (   0.0208333  -0.5412659   0.2664297), wk =   0.0018519
        k(  104) = (   0.0208333  -0.5412659  -0.3074188), wk =   0.0009259
        k(  105) = (   0.0208333  -0.4931534   0.0204946), wk =   0.0018519
        k(  106) = (   0.0208333  -0.4931534   0.0614838), wk =   0.0018519
        k(  107) = (   0.0208333  -0.4931534   0.1024729), wk =   0.0018519
        k(  108) = (   0.0208333  -0.4931534   0.1434621), wk =   0.0018519
        k(  109) = (   0.0208333  -0.4931534   0.1844513), wk =   0.0018519
        k(  110) = (   0.0208333  -0.4931534   0.2254405), wk =   0.0018519
        k(  111) = (   0.0208333  -0.4931534   0.2664297), wk =   0.0018519
        k(  112) = (   0.0208333  -0.4931534  -0.3074188), wk =   0.0009259
        k(  113) = (   0.0208333  -0.4450408   0.0204946), wk =   0.0018519
        k(  114) = (   0.0208333  -0.4450408   0.0614838), wk =   0.0018519
        k(  115) = (   0.0208333  -0.4450408   0.1024729), wk =   0.0018519
        k(  116) = (   0.0208333  -0.4450408   0.1434621), wk =   0.0018519
        k(  117) = (   0.0208333  -0.4450408   0.1844513), wk =   0.0018519
        k(  118) = (   0.0208333  -0.4450408   0.2254405), wk =   0.0018519
        k(  119) = (   0.0208333  -0.4450408   0.2664297), wk =   0.0018519
        k(  120) = (   0.0208333  -0.4450408  -0.3074188), wk =   0.0009259
        k(  121) = (   0.0208333  -0.3969283   0.0204946), wk =   0.0018519
        k(  122) = (   0.0208333  -0.3969283   0.0614838), wk =   0.0018519
        k(  123) = (   0.0208333  -0.3969283   0.1024729), wk =   0.0018519
        k(  124) = (   0.0208333  -0.3969283   0.1434621), wk =   0.0018519
        k(  125) = (   0.0208333  -0.3969283   0.1844513), wk =   0.0018519
        k(  126) = (   0.0208333  -0.3969283   0.2254405), wk =   0.0018519
        k(  127) = (   0.0208333  -0.3969283   0.2664297), wk =   0.0018519
        k(  128) = (   0.0208333  -0.3969283  -0.3074188), wk =   0.0009259
        k(  129) = (   0.0208333  -0.3488158   0.0204946), wk =   0.0018519
        k(  130) = (   0.0208333  -0.3488158   0.0614838), wk =   0.0018519
        k(  131) = (   0.0208333  -0.3488158   0.1024729), wk =   0.0018519
        k(  132) = (   0.0208333  -0.3488158   0.1434621), wk =   0.0018519
        k(  133) = (   0.0208333  -0.3488158   0.1844513), wk =   0.0018519
        k(  134) = (   0.0208333  -0.3488158   0.2254405), wk =   0.0018519
        k(  135) = (   0.0208333  -0.3488158   0.2664297), wk =   0.0018519
        k(  136) = (   0.0208333  -0.3488158  -0.3074188), wk =   0.0009259
        k(  137) = (   0.0208333  -0.3007033   0.0204946), wk =   0.0018519
        k(  138) = (   0.0208333  -0.3007033   0.0614838), wk =   0.0018519
        k(  139) = (   0.0208333  -0.3007033   0.1024729), wk =   0.0018519
        k(  140) = (   0.0208333  -0.3007033   0.1434621), wk =   0.0018519
        k(  141) = (   0.0208333  -0.3007033   0.1844513), wk =   0.0018519
        k(  142) = (   0.0208333  -0.3007033   0.2254405), wk =   0.0018519
        k(  143) = (   0.0208333  -0.3007033   0.2664297), wk =   0.0018519
        k(  144) = (   0.0208333  -0.3007033  -0.3074188), wk =   0.0009259
        k(  145) = (   0.0208333  -0.2525907   0.0204946), wk =   0.0018519
        k(  146) = (   0.0208333  -0.2525907   0.0614838), wk =   0.0018519
        k(  147) = (   0.0208333  -0.2525907   0.1024729), wk =   0.0018519
        k(  148) = (   0.0208333  -0.2525907   0.1434621), wk =   0.0018519
        k(  149) = (   0.0208333  -0.2525907   0.1844513), wk =   0.0018519
        k(  150) = (   0.0208333  -0.2525907   0.2254405), wk =   0.0018519
        k(  151) = (   0.0208333  -0.2525907   0.2664297), wk =   0.0018519
        k(  152) = (   0.0208333  -0.2525907  -0.3074188), wk =   0.0009259
        k(  153) = (   0.0208333  -0.2044782   0.0204946), wk =   0.0018519
        k(  154) = (   0.0208333  -0.2044782   0.0614838), wk =   0.0018519
        k(  155) = (   0.0208333  -0.2044782   0.1024729), wk =   0.0018519
        k(  156) = (   0.0208333  -0.2044782   0.1434621), wk =   0.0018519
        k(  157) = (   0.0208333  -0.2044782   0.1844513), wk =   0.0018519
        k(  158) = (   0.0208333  -0.2044782   0.2254405), wk =   0.0018519
        k(  159) = (   0.0208333  -0.2044782   0.2664297), wk =   0.0018519
        k(  160) = (   0.0208333  -0.2044782  -0.3074188), wk =   0.0009259
        k(  161) = (   0.0208333  -0.1563657   0.0204946), wk =   0.0018519
        k(  162) = (   0.0208333  -0.1563657   0.0614838), wk =   0.0018519
        k(  163) = (   0.0208333  -0.1563657   0.1024729), wk =   0.0018519
        k(  164) = (   0.0208333  -0.1563657   0.1434621), wk =   0.0018519
        k(  165) = (   0.0208333  -0.1563657   0.1844513), wk =   0.0018519
        k(  166) = (   0.0208333  -0.1563657   0.2254405), wk =   0.0018519
        k(  167) = (   0.0208333  -0.1563657   0.2664297), wk =   0.0018519
        k(  168) = (   0.0208333  -0.1563657  -0.3074188), wk =   0.0009259
        k(  169) = (   0.0208333  -0.1082532   0.0204946), wk =   0.0018519
        k(  170) = (   0.0208333  -0.1082532   0.0614838), wk =   0.0018519
        k(  171) = (   0.0208333  -0.1082532   0.1024729), wk =   0.0018519
        k(  172) = (   0.0208333  -0.1082532   0.1434621), wk =   0.0018519
        k(  173) = (   0.0208333  -0.1082532   0.1844513), wk =   0.0018519
        k(  174) = (   0.0208333  -0.1082532   0.2254405), wk =   0.0018519
        k(  175) = (   0.0208333  -0.1082532   0.2664297), wk =   0.0018519
        k(  176) = (   0.0208333  -0.1082532  -0.3074188), wk =   0.0009259
        k(  177) = (   0.0208333  -0.0601407   0.0204946), wk =   0.0018519
        k(  178) = (   0.0208333  -0.0601407   0.0614838), wk =   0.0018519
        k(  179) = (   0.0208333  -0.0601407   0.1024729), wk =   0.0018519
        k(  180) = (   0.0208333  -0.0601407   0.1434621), wk =   0.0018519
        k(  181) = (   0.0208333  -0.0601407   0.1844513), wk =   0.0018519
        k(  182) = (   0.0208333  -0.0601407   0.2254405), wk =   0.0018519
        k(  183) = (   0.0208333  -0.0601407   0.2664297), wk =   0.0018519
        k(  184) = (   0.0208333  -0.0601407  -0.3074188), wk =   0.0009259
        k(  185) = (   0.0208333  -0.0120281   0.0204946), wk =   0.0009259
        k(  186) = (   0.0208333  -0.0120281   0.0614838), wk =   0.0009259
        k(  187) = (   0.0208333  -0.0120281   0.1024729), wk =   0.0009259
        k(  188) = (   0.0208333  -0.0120281   0.1434621), wk =   0.0009259
        k(  189) = (   0.0208333  -0.0120281   0.1844513), wk =   0.0009259
        k(  190) = (   0.0208333  -0.0120281   0.2254405), wk =   0.0009259
        k(  191) = (   0.0208333  -0.0120281   0.2664297), wk =   0.0009259
        k(  192) = (   0.0208333  -0.0120281  -0.3074188), wk =   0.0004630
        k(  193) = (   0.0625000   0.1082532   0.0204946), wk =   0.0009259
        k(  194) = (   0.0625000   0.1082532   0.0614838), wk =   0.0009259
        k(  195) = (   0.0625000   0.1082532   0.1024729), wk =   0.0009259
        k(  196) = (   0.0625000   0.1082532   0.1434621), wk =   0.0009259
        k(  197) = (   0.0625000   0.1082532   0.1844513), wk =   0.0009259
        k(  198) = (   0.0625000   0.1082532   0.2254405), wk =   0.0009259
        k(  199) = (   0.0625000   0.1082532   0.2664297), wk =   0.0009259
        k(  200) = (   0.0625000   0.1082532  -0.3074188), wk =   0.0004630
        k(  201) = (   0.0625000   0.1563657   0.0204946), wk =   0.0018519
        k(  202) = (   0.0625000   0.1563657   0.0614838), wk =   0.0018519
        k(  203) = (   0.0625000   0.1563657   0.1024729), wk =   0.0018519
        k(  204) = (   0.0625000   0.1563657   0.1434621), wk =   0.0018519
        k(  205) = (   0.0625000   0.1563657   0.1844513), wk =   0.0018519
        k(  206) = (   0.0625000   0.1563657   0.2254405), wk =   0.0018519
        k(  207) = (   0.0625000   0.1563657   0.2664297), wk =   0.0018519
        k(  208) = (   0.0625000   0.1563657  -0.3074188), wk =   0.0009259
        k(  209) = (   0.0625000   0.2044782   0.0204946), wk =   0.0018519
        k(  210) = (   0.0625000   0.2044782   0.0614838), wk =   0.0018519
        k(  211) = (   0.0625000   0.2044782   0.1024729), wk =   0.0018519
        k(  212) = (   0.0625000   0.2044782   0.1434621), wk =   0.0018519
        k(  213) = (   0.0625000   0.2044782   0.1844513), wk =   0.0018519
        k(  214) = (   0.0625000   0.2044782   0.2254405), wk =   0.0018519
        k(  215) = (   0.0625000   0.2044782   0.2664297), wk =   0.0018519
        k(  216) = (   0.0625000   0.2044782  -0.3074188), wk =   0.0009259
        k(  217) = (   0.0625000   0.2525907   0.0204946), wk =   0.0018519
        k(  218) = (   0.0625000   0.2525907   0.0614838), wk =   0.0018519
        k(  219) = (   0.0625000   0.2525907   0.1024729), wk =   0.0018519
        k(  220) = (   0.0625000   0.2525907   0.1434621), wk =   0.0018519
        k(  221) = (   0.0625000   0.2525907   0.1844513), wk =   0.0018519
        k(  222) = (   0.0625000   0.2525907   0.2254405), wk =   0.0018519
        k(  223) = (   0.0625000   0.2525907   0.2664297), wk =   0.0018519
        k(  224) = (   0.0625000   0.2525907  -0.3074188), wk =   0.0009259
        k(  225) = (   0.0625000   0.3007033   0.0204946), wk =   0.0018519
        k(  226) = (   0.0625000   0.3007033   0.0614838), wk =   0.0018519
        k(  227) = (   0.0625000   0.3007033   0.1024729), wk =   0.0018519
        k(  228) = (   0.0625000   0.3007033   0.1434621), wk =   0.0018519
        k(  229) = (   0.0625000   0.3007033   0.1844513), wk =   0.0018519
        k(  230) = (   0.0625000   0.3007033   0.2254405), wk =   0.0018519
        k(  231) = (   0.0625000   0.3007033   0.2664297), wk =   0.0018519
        k(  232) = (   0.0625000   0.3007033  -0.3074188), wk =   0.0009259
        k(  233) = (   0.0625000   0.3488158   0.0204946), wk =   0.0018519
        k(  234) = (   0.0625000   0.3488158   0.0614838), wk =   0.0018519
        k(  235) = (   0.0625000   0.3488158   0.1024729), wk =   0.0018519
        k(  236) = (   0.0625000   0.3488158   0.1434621), wk =   0.0018519
        k(  237) = (   0.0625000   0.3488158   0.1844513), wk =   0.0018519
        k(  238) = (   0.0625000   0.3488158   0.2254405), wk =   0.0018519
        k(  239) = (   0.0625000   0.3488158   0.2664297), wk =   0.0018519
        k(  240) = (   0.0625000   0.3488158  -0.3074188), wk =   0.0009259
        k(  241) = (   0.0625000   0.3969283   0.0204946), wk =   0.0018519
        k(  242) = (   0.0625000   0.3969283   0.0614838), wk =   0.0018519
        k(  243) = (   0.0625000   0.3969283   0.1024729), wk =   0.0018519
        k(  244) = (   0.0625000   0.3969283   0.1434621), wk =   0.0018519
        k(  245) = (   0.0625000   0.3969283   0.1844513), wk =   0.0018519
        k(  246) = (   0.0625000   0.3969283   0.2254405), wk =   0.0018519
        k(  247) = (   0.0625000   0.3969283   0.2664297), wk =   0.0018519
        k(  248) = (   0.0625000   0.3969283  -0.3074188), wk =   0.0009259
        k(  249) = (   0.0625000   0.4450408   0.0204946), wk =   0.0018519
        k(  250) = (   0.0625000   0.4450408   0.0614838), wk =   0.0018519
        k(  251) = (   0.0625000   0.4450408   0.1024729), wk =   0.0018519
        k(  252) = (   0.0625000   0.4450408   0.1434621), wk =   0.0018519
        k(  253) = (   0.0625000   0.4450408   0.1844513), wk =   0.0018519
        k(  254) = (   0.0625000   0.4450408   0.2254405), wk =   0.0018519
        k(  255) = (   0.0625000   0.4450408   0.2664297), wk =   0.0018519
        k(  256) = (   0.0625000   0.4450408  -0.3074188), wk =   0.0009259
        k(  257) = (   0.0625000   0.4931534   0.0204946), wk =   0.0018519
        k(  258) = (   0.0625000   0.4931534   0.0614838), wk =   0.0018519
        k(  259) = (   0.0625000   0.4931534   0.1024729), wk =   0.0018519
        k(  260) = (   0.0625000   0.4931534   0.1434621), wk =   0.0018519
        k(  261) = (   0.0625000   0.4931534   0.1844513), wk =   0.0018519
        k(  262) = (   0.0625000   0.4931534   0.2254405), wk =   0.0018519
        k(  263) = (   0.0625000   0.4931534   0.2664297), wk =   0.0018519
        k(  264) = (   0.0625000   0.4931534  -0.3074188), wk =   0.0009259
        k(  265) = (   0.0625000   0.5412659   0.0204946), wk =   0.0018519
        k(  266) = (   0.0625000   0.5412659   0.0614838), wk =   0.0018519
        k(  267) = (   0.0625000   0.5412659   0.1024729), wk =   0.0018519
        k(  268) = (   0.0625000   0.5412659   0.1434621), wk =   0.0018519
        k(  269) = (   0.0625000   0.5412659   0.1844513), wk =   0.0018519
        k(  270) = (   0.0625000   0.5412659   0.2254405), wk =   0.0018519
        k(  271) = (   0.0625000   0.5412659   0.2664297), wk =   0.0018519
        k(  272) = (   0.0625000   0.5412659  -0.3074188), wk =   0.0009259
        k(  273) = (   0.0625000   0.5893784   0.0204946), wk =   0.0018519
        k(  274) = (   0.0625000   0.5893784   0.0614838), wk =   0.0018519
        k(  275) = (   0.0625000   0.5893784   0.1024729), wk =   0.0018519
        k(  276) = (   0.0625000   0.5893784   0.1434621), wk =   0.0018519
        k(  277) = (   0.0625000   0.5893784   0.1844513), wk =   0.0018519
        k(  278) = (   0.0625000   0.5893784   0.2254405), wk =   0.0018519
        k(  279) = (   0.0625000   0.5893784   0.2664297), wk =   0.0018519
        k(  280) = (   0.0625000   0.5893784  -0.3074188), wk =   0.0009259
        k(  281) = (   0.0625000  -0.5172096   0.0204946), wk =   0.0018519
        k(  282) = (   0.0625000  -0.5172096   0.0614838), wk =   0.0018519
        k(  283) = (   0.0625000  -0.5172096   0.1024729), wk =   0.0018519
        k(  284) = (   0.0625000  -0.5172096   0.1434621), wk =   0.0018519
        k(  285) = (   0.0625000  -0.5172096   0.1844513), wk =   0.0018519
        k(  286) = (   0.0625000  -0.5172096   0.2254405), wk =   0.0018519
        k(  287) = (   0.0625000  -0.5172096   0.2664297), wk =   0.0018519
        k(  288) = (   0.0625000  -0.5172096  -0.3074188), wk =   0.0009259
        k(  289) = (   0.0625000  -0.4690971   0.0204946), wk =   0.0018519
        k(  290) = (   0.0625000  -0.4690971   0.0614838), wk =   0.0018519
        k(  291) = (   0.0625000  -0.4690971   0.1024729), wk =   0.0018519
        k(  292) = (   0.0625000  -0.4690971   0.1434621), wk =   0.0018519
        k(  293) = (   0.0625000  -0.4690971   0.1844513), wk =   0.0018519
        k(  294) = (   0.0625000  -0.4690971   0.2254405), wk =   0.0018519
        k(  295) = (   0.0625000  -0.4690971   0.2664297), wk =   0.0018519
        k(  296) = (   0.0625000  -0.4690971  -0.3074188), wk =   0.0009259
        k(  297) = (   0.0625000  -0.4209846   0.0204946), wk =   0.0018519
        k(  298) = (   0.0625000  -0.4209846   0.0614838), wk =   0.0018519
        k(  299) = (   0.0625000  -0.4209846   0.1024729), wk =   0.0018519
        k(  300) = (   0.0625000  -0.4209846   0.1434621), wk =   0.0018519
        k(  301) = (   0.0625000  -0.4209846   0.1844513), wk =   0.0018519
        k(  302) = (   0.0625000  -0.4209846   0.2254405), wk =   0.0018519
        k(  303) = (   0.0625000  -0.4209846   0.2664297), wk =   0.0018519
        k(  304) = (   0.0625000  -0.4209846  -0.3074188), wk =   0.0009259
        k(  305) = (   0.0625000  -0.3728720   0.0204946), wk =   0.0018519
        k(  306) = (   0.0625000  -0.3728720   0.0614838), wk =   0.0018519
        k(  307) = (   0.0625000  -0.3728720   0.1024729), wk =   0.0018519
        k(  308) = (   0.0625000  -0.3728720   0.1434621), wk =   0.0018519
        k(  309) = (   0.0625000  -0.3728720   0.1844513), wk =   0.0018519
        k(  310) = (   0.0625000  -0.3728720   0.2254405), wk =   0.0018519
        k(  311) = (   0.0625000  -0.3728720   0.2664297), wk =   0.0018519
        k(  312) = (   0.0625000  -0.3728720  -0.3074188), wk =   0.0009259
        k(  313) = (   0.0625000  -0.3247595   0.0204946), wk =   0.0018519
        k(  314) = (   0.0625000  -0.3247595   0.0614838), wk =   0.0018519
        k(  315) = (   0.0625000  -0.3247595   0.1024729), wk =   0.0018519
        k(  316) = (   0.0625000  -0.3247595   0.1434621), wk =   0.0018519
        k(  317) = (   0.0625000  -0.3247595   0.1844513), wk =   0.0018519
        k(  318) = (   0.0625000  -0.3247595   0.2254405), wk =   0.0018519
        k(  319) = (   0.0625000  -0.3247595   0.2664297), wk =   0.0018519
        k(  320) = (   0.0625000  -0.3247595  -0.3074188), wk =   0.0009259
        k(  321) = (   0.0625000  -0.2766470   0.0204946), wk =   0.0018519
        k(  322) = (   0.0625000  -0.2766470   0.0614838), wk =   0.0018519
        k(  323) = (   0.0625000  -0.2766470   0.1024729), wk =   0.0018519
        k(  324) = (   0.0625000  -0.2766470   0.1434621), wk =   0.0018519
        k(  325) = (   0.0625000  -0.2766470   0.1844513), wk =   0.0018519
        k(  326) = (   0.0625000  -0.2766470   0.2254405), wk =   0.0018519
        k(  327) = (   0.0625000  -0.2766470   0.2664297), wk =   0.0018519
        k(  328) = (   0.0625000  -0.2766470  -0.3074188), wk =   0.0009259
        k(  329) = (   0.0625000  -0.2285345   0.0204946), wk =   0.0018519
        k(  330) = (   0.0625000  -0.2285345   0.0614838), wk =   0.0018519
        k(  331) = (   0.0625000  -0.2285345   0.1024729), wk =   0.0018519
        k(  332) = (   0.0625000  -0.2285345   0.1434621), wk =   0.0018519
        k(  333) = (   0.0625000  -0.2285345   0.1844513), wk =   0.0018519
        k(  334) = (   0.0625000  -0.2285345   0.2254405), wk =   0.0018519
        k(  335) = (   0.0625000  -0.2285345   0.2664297), wk =   0.0018519
        k(  336) = (   0.0625000  -0.2285345  -0.3074188), wk =   0.0009259
        k(  337) = (   0.0625000  -0.1804220   0.0204946), wk =   0.0018519
        k(  338) = (   0.0625000  -0.1804220   0.0614838), wk =   0.0018519
        k(  339) = (   0.0625000  -0.1804220   0.1024729), wk =   0.0018519
        k(  340) = (   0.0625000  -0.1804220   0.1434621), wk =   0.0018519
        k(  341) = (   0.0625000  -0.1804220   0.1844513), wk =   0.0018519
        k(  342) = (   0.0625000  -0.1804220   0.2254405), wk =   0.0018519
        k(  343) = (   0.0625000  -0.1804220   0.2664297), wk =   0.0018519
        k(  344) = (   0.0625000  -0.1804220  -0.3074188), wk =   0.0009259
        k(  345) = (   0.0625000  -0.1323094   0.0204946), wk =   0.0018519
        k(  346) = (   0.0625000  -0.1323094   0.0614838), wk =   0.0018519
        k(  347) = (   0.0625000  -0.1323094   0.1024729), wk =   0.0018519
        k(  348) = (   0.0625000  -0.1323094   0.1434621), wk =   0.0018519
        k(  349) = (   0.0625000  -0.1323094   0.1844513), wk =   0.0018519
        k(  350) = (   0.0625000  -0.1323094   0.2254405), wk =   0.0018519
        k(  351) = (   0.0625000  -0.1323094   0.2664297), wk =   0.0018519
        k(  352) = (   0.0625000  -0.1323094  -0.3074188), wk =   0.0009259
        k(  353) = (   0.0625000  -0.0841969   0.0204946), wk =   0.0018519
        k(  354) = (   0.0625000  -0.0841969   0.0614838), wk =   0.0018519
        k(  355) = (   0.0625000  -0.0841969   0.1024729), wk =   0.0018519
        k(  356) = (   0.0625000  -0.0841969   0.1434621), wk =   0.0018519
        k(  357) = (   0.0625000  -0.0841969   0.1844513), wk =   0.0018519
        k(  358) = (   0.0625000  -0.0841969   0.2254405), wk =   0.0018519
        k(  359) = (   0.0625000  -0.0841969   0.2664297), wk =   0.0018519
        k(  360) = (   0.0625000  -0.0841969  -0.3074188), wk =   0.0009259
        k(  361) = (   0.0625000  -0.0360844   0.0204946), wk =   0.0009259
        k(  362) = (   0.0625000  -0.0360844   0.0614838), wk =   0.0009259
        k(  363) = (   0.0625000  -0.0360844   0.1024729), wk =   0.0009259
        k(  364) = (   0.0625000  -0.0360844   0.1434621), wk =   0.0009259
        k(  365) = (   0.0625000  -0.0360844   0.1844513), wk =   0.0009259
        k(  366) = (   0.0625000  -0.0360844   0.2254405), wk =   0.0009259
        k(  367) = (   0.0625000  -0.0360844   0.2664297), wk =   0.0009259
        k(  368) = (   0.0625000  -0.0360844  -0.3074188), wk =   0.0004630
        k(  369) = (   0.1041667   0.1804220   0.0204946), wk =   0.0009259
        k(  370) = (   0.1041667   0.1804220   0.0614838), wk =   0.0009259
        k(  371) = (   0.1041667   0.1804220   0.1024729), wk =   0.0009259
        k(  372) = (   0.1041667   0.1804220   0.1434621), wk =   0.0009259
        k(  373) = (   0.1041667   0.1804220   0.1844513), wk =   0.0009259
        k(  374) = (   0.1041667   0.1804220   0.2254405), wk =   0.0009259
        k(  375) = (   0.1041667   0.1804220   0.2664297), wk =   0.0009259
        k(  376) = (   0.1041667   0.1804220  -0.3074188), wk =   0.0004630
        k(  377) = (   0.1041667   0.2285345   0.0204946), wk =   0.0018519
        k(  378) = (   0.1041667   0.2285345   0.0614838), wk =   0.0018519
        k(  379) = (   0.1041667   0.2285345   0.1024729), wk =   0.0018519
        k(  380) = (   0.1041667   0.2285345   0.1434621), wk =   0.0018519
        k(  381) = (   0.1041667   0.2285345   0.1844513), wk =   0.0018519
        k(  382) = (   0.1041667   0.2285345   0.2254405), wk =   0.0018519
        k(  383) = (   0.1041667   0.2285345   0.2664297), wk =   0.0018519
        k(  384) = (   0.1041667   0.2285345  -0.3074188), wk =   0.0009259
        k(  385) = (   0.1041667   0.2766470   0.0204946), wk =   0.0018519
        k(  386) = (   0.1041667   0.2766470   0.0614838), wk =   0.0018519
        k(  387) = (   0.1041667   0.2766470   0.1024729), wk =   0.0018519
        k(  388) = (   0.1041667   0.2766470   0.1434621), wk =   0.0018519
        k(  389) = (   0.1041667   0.2766470   0.1844513), wk =   0.0018519
        k(  390) = (   0.1041667   0.2766470   0.2254405), wk =   0.0018519
        k(  391) = (   0.1041667   0.2766470   0.2664297), wk =   0.0018519
        k(  392) = (   0.1041667   0.2766470  -0.3074188), wk =   0.0009259
        k(  393) = (   0.1041667   0.3247595   0.0204946), wk =   0.0018519
        k(  394) = (   0.1041667   0.3247595   0.0614838), wk =   0.0018519
        k(  395) = (   0.1041667   0.3247595   0.1024729), wk =   0.0018519
        k(  396) = (   0.1041667   0.3247595   0.1434621), wk =   0.0018519
        k(  397) = (   0.1041667   0.3247595   0.1844513), wk =   0.0018519
        k(  398) = (   0.1041667   0.3247595   0.2254405), wk =   0.0018519
        k(  399) = (   0.1041667   0.3247595   0.2664297), wk =   0.0018519
        k(  400) = (   0.1041667   0.3247595  -0.3074188), wk =   0.0009259
        k(  401) = (   0.1041667   0.3728720   0.0204946), wk =   0.0018519
        k(  402) = (   0.1041667   0.3728720   0.0614838), wk =   0.0018519
        k(  403) = (   0.1041667   0.3728720   0.1024729), wk =   0.0018519
        k(  404) = (   0.1041667   0.3728720   0.1434621), wk =   0.0018519
        k(  405) = (   0.1041667   0.3728720   0.1844513), wk =   0.0018519
        k(  406) = (   0.1041667   0.3728720   0.2254405), wk =   0.0018519
        k(  407) = (   0.1041667   0.3728720   0.2664297), wk =   0.0018519
        k(  408) = (   0.1041667   0.3728720  -0.3074188), wk =   0.0009259
        k(  409) = (   0.1041667   0.4209846   0.0204946), wk =   0.0018519
        k(  410) = (   0.1041667   0.4209846   0.0614838), wk =   0.0018519
        k(  411) = (   0.1041667   0.4209846   0.1024729), wk =   0.0018519
        k(  412) = (   0.1041667   0.4209846   0.1434621), wk =   0.0018519
        k(  413) = (   0.1041667   0.4209846   0.1844513), wk =   0.0018519
        k(  414) = (   0.1041667   0.4209846   0.2254405), wk =   0.0018519
        k(  415) = (   0.1041667   0.4209846   0.2664297), wk =   0.0018519
        k(  416) = (   0.1041667   0.4209846  -0.3074188), wk =   0.0009259
        k(  417) = (   0.1041667   0.4690971   0.0204946), wk =   0.0018519
        k(  418) = (   0.1041667   0.4690971   0.0614838), wk =   0.0018519
        k(  419) = (   0.1041667   0.4690971   0.1024729), wk =   0.0018519
        k(  420) = (   0.1041667   0.4690971   0.1434621), wk =   0.0018519
        k(  421) = (   0.1041667   0.4690971   0.1844513), wk =   0.0018519
        k(  422) = (   0.1041667   0.4690971   0.2254405), wk =   0.0018519
        k(  423) = (   0.1041667   0.4690971   0.2664297), wk =   0.0018519
        k(  424) = (   0.1041667   0.4690971  -0.3074188), wk =   0.0009259
        k(  425) = (   0.1041667   0.5172096   0.0204946), wk =   0.0018519
        k(  426) = (   0.1041667   0.5172096   0.0614838), wk =   0.0018519
        k(  427) = (   0.1041667   0.5172096   0.1024729), wk =   0.0018519
        k(  428) = (   0.1041667   0.5172096   0.1434621), wk =   0.0018519
        k(  429) = (   0.1041667   0.5172096   0.1844513), wk =   0.0018519
        k(  430) = (   0.1041667   0.5172096   0.2254405), wk =   0.0018519
        k(  431) = (   0.1041667   0.5172096   0.2664297), wk =   0.0018519
        k(  432) = (   0.1041667   0.5172096  -0.3074188), wk =   0.0009259
        k(  433) = (   0.1041667   0.5653221   0.0204946), wk =   0.0018519
        k(  434) = (   0.1041667   0.5653221   0.0614838), wk =   0.0018519
        k(  435) = (   0.1041667   0.5653221   0.1024729), wk =   0.0018519
        k(  436) = (   0.1041667   0.5653221   0.1434621), wk =   0.0018519
        k(  437) = (   0.1041667   0.5653221   0.1844513), wk =   0.0018519
        k(  438) = (   0.1041667   0.5653221   0.2254405), wk =   0.0018519
        k(  439) = (   0.1041667   0.5653221   0.2664297), wk =   0.0018519
        k(  440) = (   0.1041667   0.5653221  -0.3074188), wk =   0.0009259
        k(  441) = (   0.1041667   0.6134347   0.0204946), wk =   0.0018519
        k(  442) = (   0.1041667   0.6134347   0.0614838), wk =   0.0018519
        k(  443) = (   0.1041667   0.6134347   0.1024729), wk =   0.0018519
        k(  444) = (   0.1041667   0.6134347   0.1434621), wk =   0.0018519
        k(  445) = (   0.1041667   0.6134347   0.1844513), wk =   0.0018519
        k(  446) = (   0.1041667   0.6134347   0.2254405), wk =   0.0018519
        k(  447) = (   0.1041667   0.6134347   0.2664297), wk =   0.0018519
        k(  448) = (   0.1041667   0.6134347  -0.3074188), wk =   0.0009259
        k(  449) = (   0.1041667  -0.4931534   0.0204946), wk =   0.0018519
        k(  450) = (   0.1041667  -0.4931534   0.0614838), wk =   0.0018519
        k(  451) = (   0.1041667  -0.4931534   0.1024729), wk =   0.0018519
        k(  452) = (   0.1041667  -0.4931534   0.1434621), wk =   0.0018519
        k(  453) = (   0.1041667  -0.4931534   0.1844513), wk =   0.0018519
        k(  454) = (   0.1041667  -0.4931534   0.2254405), wk =   0.0018519
        k(  455) = (   0.1041667  -0.4931534   0.2664297), wk =   0.0018519
        k(  456) = (   0.1041667  -0.4931534  -0.3074188), wk =   0.0009259
        k(  457) = (   0.1041667  -0.4450408   0.0204946), wk =   0.0018519
        k(  458) = (   0.1041667  -0.4450408   0.0614838), wk =   0.0018519
        k(  459) = (   0.1041667  -0.4450408   0.1024729), wk =   0.0018519
        k(  460) = (   0.1041667  -0.4450408   0.1434621), wk =   0.0018519
        k(  461) = (   0.1041667  -0.4450408   0.1844513), wk =   0.0018519
        k(  462) = (   0.1041667  -0.4450408   0.2254405), wk =   0.0018519
        k(  463) = (   0.1041667  -0.4450408   0.2664297), wk =   0.0018519
        k(  464) = (   0.1041667  -0.4450408  -0.3074188), wk =   0.0009259
        k(  465) = (   0.1041667  -0.3969283   0.0204946), wk =   0.0018519
        k(  466) = (   0.1041667  -0.3969283   0.0614838), wk =   0.0018519
        k(  467) = (   0.1041667  -0.3969283   0.1024729), wk =   0.0018519
        k(  468) = (   0.1041667  -0.3969283   0.1434621), wk =   0.0018519
        k(  469) = (   0.1041667  -0.3969283   0.1844513), wk =   0.0018519
        k(  470) = (   0.1041667  -0.3969283   0.2254405), wk =   0.0018519
        k(  471) = (   0.1041667  -0.3969283   0.2664297), wk =   0.0018519
        k(  472) = (   0.1041667  -0.3969283  -0.3074188), wk =   0.0009259
        k(  473) = (   0.1041667  -0.3488158   0.0204946), wk =   0.0018519
        k(  474) = (   0.1041667  -0.3488158   0.0614838), wk =   0.0018519
        k(  475) = (   0.1041667  -0.3488158   0.1024729), wk =   0.0018519
        k(  476) = (   0.1041667  -0.3488158   0.1434621), wk =   0.0018519
        k(  477) = (   0.1041667  -0.3488158   0.1844513), wk =   0.0018519
        k(  478) = (   0.1041667  -0.3488158   0.2254405), wk =   0.0018519
        k(  479) = (   0.1041667  -0.3488158   0.2664297), wk =   0.0018519
        k(  480) = (   0.1041667  -0.3488158  -0.3074188), wk =   0.0009259
        k(  481) = (   0.1041667  -0.3007033   0.0204946), wk =   0.0018519
        k(  482) = (   0.1041667  -0.3007033   0.0614838), wk =   0.0018519
        k(  483) = (   0.1041667  -0.3007033   0.1024729), wk =   0.0018519
        k(  484) = (   0.1041667  -0.3007033   0.1434621), wk =   0.0018519
        k(  485) = (   0.1041667  -0.3007033   0.1844513), wk =   0.0018519
        k(  486) = (   0.1041667  -0.3007033   0.2254405), wk =   0.0018519
        k(  487) = (   0.1041667  -0.3007033   0.2664297), wk =   0.0018519
        k(  488) = (   0.1041667  -0.3007033  -0.3074188), wk =   0.0009259
        k(  489) = (   0.1041667  -0.2525907   0.0204946), wk =   0.0018519
        k(  490) = (   0.1041667  -0.2525907   0.0614838), wk =   0.0018519
        k(  491) = (   0.1041667  -0.2525907   0.1024729), wk =   0.0018519
        k(  492) = (   0.1041667  -0.2525907   0.1434621), wk =   0.0018519
        k(  493) = (   0.1041667  -0.2525907   0.1844513), wk =   0.0018519
        k(  494) = (   0.1041667  -0.2525907   0.2254405), wk =   0.0018519
        k(  495) = (   0.1041667  -0.2525907   0.2664297), wk =   0.0018519
        k(  496) = (   0.1041667  -0.2525907  -0.3074188), wk =   0.0009259
        k(  497) = (   0.1041667  -0.2044782   0.0204946), wk =   0.0018519
        k(  498) = (   0.1041667  -0.2044782   0.0614838), wk =   0.0018519
        k(  499) = (   0.1041667  -0.2044782   0.1024729), wk =   0.0018519
        k(  500) = (   0.1041667  -0.2044782   0.1434621), wk =   0.0018519
        k(  501) = (   0.1041667  -0.2044782   0.1844513), wk =   0.0018519
        k(  502) = (   0.1041667  -0.2044782   0.2254405), wk =   0.0018519
        k(  503) = (   0.1041667  -0.2044782   0.2664297), wk =   0.0018519
        k(  504) = (   0.1041667  -0.2044782  -0.3074188), wk =   0.0009259
        k(  505) = (   0.1041667  -0.1563657   0.0204946), wk =   0.0018519
        k(  506) = (   0.1041667  -0.1563657   0.0614838), wk =   0.0018519
        k(  507) = (   0.1041667  -0.1563657   0.1024729), wk =   0.0018519
        k(  508) = (   0.1041667  -0.1563657   0.1434621), wk =   0.0018519
        k(  509) = (   0.1041667  -0.1563657   0.1844513), wk =   0.0018519
        k(  510) = (   0.1041667  -0.1563657   0.2254405), wk =   0.0018519
        k(  511) = (   0.1041667  -0.1563657   0.2664297), wk =   0.0018519
        k(  512) = (   0.1041667  -0.1563657  -0.3074188), wk =   0.0009259
        k(  513) = (   0.1041667  -0.1082532   0.0204946), wk =   0.0018519
        k(  514) = (   0.1041667  -0.1082532   0.0614838), wk =   0.0018519
        k(  515) = (   0.1041667  -0.1082532   0.1024729), wk =   0.0018519
        k(  516) = (   0.1041667  -0.1082532   0.1434621), wk =   0.0018519
        k(  517) = (   0.1041667  -0.1082532   0.1844513), wk =   0.0018519
        k(  518) = (   0.1041667  -0.1082532   0.2254405), wk =   0.0018519
        k(  519) = (   0.1041667  -0.1082532   0.2664297), wk =   0.0018519
        k(  520) = (   0.1041667  -0.1082532  -0.3074188), wk =   0.0009259
        k(  521) = (   0.1041667  -0.0601407   0.0204946), wk =   0.0009259
        k(  522) = (   0.1041667  -0.0601407   0.0614838), wk =   0.0009259
        k(  523) = (   0.1041667  -0.0601407   0.1024729), wk =   0.0009259
        k(  524) = (   0.1041667  -0.0601407   0.1434621), wk =   0.0009259
        k(  525) = (   0.1041667  -0.0601407   0.1844513), wk =   0.0009259
        k(  526) = (   0.1041667  -0.0601407   0.2254405), wk =   0.0009259
        k(  527) = (   0.1041667  -0.0601407   0.2664297), wk =   0.0009259
        k(  528) = (   0.1041667  -0.0601407  -0.3074188), wk =   0.0004630
        k(  529) = (   0.1458333   0.2525907   0.0204946), wk =   0.0009259
        k(  530) = (   0.1458333   0.2525907   0.0614838), wk =   0.0009259
        k(  531) = (   0.1458333   0.2525907   0.1024729), wk =   0.0009259
        k(  532) = (   0.1458333   0.2525907   0.1434621), wk =   0.0009259
        k(  533) = (   0.1458333   0.2525907   0.1844513), wk =   0.0009259
        k(  534) = (   0.1458333   0.2525907   0.2254405), wk =   0.0009259
        k(  535) = (   0.1458333   0.2525907   0.2664297), wk =   0.0009259
        k(  536) = (   0.1458333   0.2525907  -0.3074188), wk =   0.0004630
        k(  537) = (   0.1458333   0.3007033   0.0204946), wk =   0.0018519
        k(  538) = (   0.1458333   0.3007033   0.0614838), wk =   0.0018519
        k(  539) = (   0.1458333   0.3007033   0.1024729), wk =   0.0018519
        k(  540) = (   0.1458333   0.3007033   0.1434621), wk =   0.0018519
        k(  541) = (   0.1458333   0.3007033   0.1844513), wk =   0.0018519
        k(  542) = (   0.1458333   0.3007033   0.2254405), wk =   0.0018519
        k(  543) = (   0.1458333   0.3007033   0.2664297), wk =   0.0018519
        k(  544) = (   0.1458333   0.3007033  -0.3074188), wk =   0.0009259
        k(  545) = (   0.1458333   0.3488158   0.0204946), wk =   0.0018519
        k(  546) = (   0.1458333   0.3488158   0.0614838), wk =   0.0018519
        k(  547) = (   0.1458333   0.3488158   0.1024729), wk =   0.0018519
        k(  548) = (   0.1458333   0.3488158   0.1434621), wk =   0.0018519
        k(  549) = (   0.1458333   0.3488158   0.1844513), wk =   0.0018519
        k(  550) = (   0.1458333   0.3488158   0.2254405), wk =   0.0018519
        k(  551) = (   0.1458333   0.3488158   0.2664297), wk =   0.0018519
        k(  552) = (   0.1458333   0.3488158  -0.3074188), wk =   0.0009259
        k(  553) = (   0.1458333   0.3969283   0.0204946), wk =   0.0018519
        k(  554) = (   0.1458333   0.3969283   0.0614838), wk =   0.0018519
        k(  555) = (   0.1458333   0.3969283   0.1024729), wk =   0.0018519
        k(  556) = (   0.1458333   0.3969283   0.1434621), wk =   0.0018519
        k(  557) = (   0.1458333   0.3969283   0.1844513), wk =   0.0018519
        k(  558) = (   0.1458333   0.3969283   0.2254405), wk =   0.0018519
        k(  559) = (   0.1458333   0.3969283   0.2664297), wk =   0.0018519
        k(  560) = (   0.1458333   0.3969283  -0.3074188), wk =   0.0009259
        k(  561) = (   0.1458333   0.4450408   0.0204946), wk =   0.0018519
        k(  562) = (   0.1458333   0.4450408   0.0614838), wk =   0.0018519
        k(  563) = (   0.1458333   0.4450408   0.1024729), wk =   0.0018519
        k(  564) = (   0.1458333   0.4450408   0.1434621), wk =   0.0018519
        k(  565) = (   0.1458333   0.4450408   0.1844513), wk =   0.0018519
        k(  566) = (   0.1458333   0.4450408   0.2254405), wk =   0.0018519
        k(  567) = (   0.1458333   0.4450408   0.2664297), wk =   0.0018519
        k(  568) = (   0.1458333   0.4450408  -0.3074188), wk =   0.0009259
        k(  569) = (   0.1458333   0.4931534   0.0204946), wk =   0.0018519
        k(  570) = (   0.1458333   0.4931534   0.0614838), wk =   0.0018519
        k(  571) = (   0.1458333   0.4931534   0.1024729), wk =   0.0018519
        k(  572) = (   0.1458333   0.4931534   0.1434621), wk =   0.0018519
        k(  573) = (   0.1458333   0.4931534   0.1844513), wk =   0.0018519
        k(  574) = (   0.1458333   0.4931534   0.2254405), wk =   0.0018519
        k(  575) = (   0.1458333   0.4931534   0.2664297), wk =   0.0018519
        k(  576) = (   0.1458333   0.4931534  -0.3074188), wk =   0.0009259
        k(  577) = (   0.1458333   0.5412659   0.0204946), wk =   0.0018519
        k(  578) = (   0.1458333   0.5412659   0.0614838), wk =   0.0018519
        k(  579) = (   0.1458333   0.5412659   0.1024729), wk =   0.0018519
        k(  580) = (   0.1458333   0.5412659   0.1434621), wk =   0.0018519
        k(  581) = (   0.1458333   0.5412659   0.1844513), wk =   0.0018519
        k(  582) = (   0.1458333   0.5412659   0.2254405), wk =   0.0018519
        k(  583) = (   0.1458333   0.5412659   0.2664297), wk =   0.0018519
        k(  584) = (   0.1458333   0.5412659  -0.3074188), wk =   0.0009259
        k(  585) = (   0.1458333   0.5893784   0.0204946), wk =   0.0018519
        k(  586) = (   0.1458333   0.5893784   0.0614838), wk =   0.0018519
        k(  587) = (   0.1458333   0.5893784   0.1024729), wk =   0.0018519
        k(  588) = (   0.1458333   0.5893784   0.1434621), wk =   0.0018519
        k(  589) = (   0.1458333   0.5893784   0.1844513), wk =   0.0018519
        k(  590) = (   0.1458333   0.5893784   0.2254405), wk =   0.0018519
        k(  591) = (   0.1458333   0.5893784   0.2664297), wk =   0.0018519
        k(  592) = (   0.1458333   0.5893784  -0.3074188), wk =   0.0009259
        k(  593) = (   0.1458333   0.6374909   0.0204946), wk =   0.0018519
        k(  594) = (   0.1458333   0.6374909   0.0614838), wk =   0.0018519
        k(  595) = (   0.1458333   0.6374909   0.1024729), wk =   0.0018519
        k(  596) = (   0.1458333   0.6374909   0.1434621), wk =   0.0018519
        k(  597) = (   0.1458333   0.6374909   0.1844513), wk =   0.0018519
        k(  598) = (   0.1458333   0.6374909   0.2254405), wk =   0.0018519
        k(  599) = (   0.1458333   0.6374909   0.2664297), wk =   0.0018519
        k(  600) = (   0.1458333   0.6374909  -0.3074188), wk =   0.0009259
        k(  601) = (   0.1458333  -0.4690971   0.0204946), wk =   0.0018519
        k(  602) = (   0.1458333  -0.4690971   0.0614838), wk =   0.0018519
        k(  603) = (   0.1458333  -0.4690971   0.1024729), wk =   0.0018519
        k(  604) = (   0.1458333  -0.4690971   0.1434621), wk =   0.0018519
        k(  605) = (   0.1458333  -0.4690971   0.1844513), wk =   0.0018519
        k(  606) = (   0.1458333  -0.4690971   0.2254405), wk =   0.0018519
        k(  607) = (   0.1458333  -0.4690971   0.2664297), wk =   0.0018519
        k(  608) = (   0.1458333  -0.4690971  -0.3074188), wk =   0.0009259
        k(  609) = (   0.1458333  -0.4209846   0.0204946), wk =   0.0018519
        k(  610) = (   0.1458333  -0.4209846   0.0614838), wk =   0.0018519
        k(  611) = (   0.1458333  -0.4209846   0.1024729), wk =   0.0018519
        k(  612) = (   0.1458333  -0.4209846   0.1434621), wk =   0.0018519
        k(  613) = (   0.1458333  -0.4209846   0.1844513), wk =   0.0018519
        k(  614) = (   0.1458333  -0.4209846   0.2254405), wk =   0.0018519
        k(  615) = (   0.1458333  -0.4209846   0.2664297), wk =   0.0018519
        k(  616) = (   0.1458333  -0.4209846  -0.3074188), wk =   0.0009259
        k(  617) = (   0.1458333  -0.3728720   0.0204946), wk =   0.0018519
        k(  618) = (   0.1458333  -0.3728720   0.0614838), wk =   0.0018519
        k(  619) = (   0.1458333  -0.3728720   0.1024729), wk =   0.0018519
        k(  620) = (   0.1458333  -0.3728720   0.1434621), wk =   0.0018519
        k(  621) = (   0.1458333  -0.3728720   0.1844513), wk =   0.0018519
        k(  622) = (   0.1458333  -0.3728720   0.2254405), wk =   0.0018519
        k(  623) = (   0.1458333  -0.3728720   0.2664297), wk =   0.0018519
        k(  624) = (   0.1458333  -0.3728720  -0.3074188), wk =   0.0009259
        k(  625) = (   0.1458333  -0.3247595   0.0204946), wk =   0.0018519
        k(  626) = (   0.1458333  -0.3247595   0.0614838), wk =   0.0018519
        k(  627) = (   0.1458333  -0.3247595   0.1024729), wk =   0.0018519
        k(  628) = (   0.1458333  -0.3247595   0.1434621), wk =   0.0018519
        k(  629) = (   0.1458333  -0.3247595   0.1844513), wk =   0.0018519
        k(  630) = (   0.1458333  -0.3247595   0.2254405), wk =   0.0018519
        k(  631) = (   0.1458333  -0.3247595   0.2664297), wk =   0.0018519
        k(  632) = (   0.1458333  -0.3247595  -0.3074188), wk =   0.0009259
        k(  633) = (   0.1458333  -0.2766470   0.0204946), wk =   0.0018519
        k(  634) = (   0.1458333  -0.2766470   0.0614838), wk =   0.0018519
        k(  635) = (   0.1458333  -0.2766470   0.1024729), wk =   0.0018519
        k(  636) = (   0.1458333  -0.2766470   0.1434621), wk =   0.0018519
        k(  637) = (   0.1458333  -0.2766470   0.1844513), wk =   0.0018519
        k(  638) = (   0.1458333  -0.2766470   0.2254405), wk =   0.0018519
        k(  639) = (   0.1458333  -0.2766470   0.2664297), wk =   0.0018519
        k(  640) = (   0.1458333  -0.2766470  -0.3074188), wk =   0.0009259
        k(  641) = (   0.1458333  -0.2285345   0.0204946), wk =   0.0018519
        k(  642) = (   0.1458333  -0.2285345   0.0614838), wk =   0.0018519
        k(  643) = (   0.1458333  -0.2285345   0.1024729), wk =   0.0018519
        k(  644) = (   0.1458333  -0.2285345   0.1434621), wk =   0.0018519
        k(  645) = (   0.1458333  -0.2285345   0.1844513), wk =   0.0018519
        k(  646) = (   0.1458333  -0.2285345   0.2254405), wk =   0.0018519
        k(  647) = (   0.1458333  -0.2285345   0.2664297), wk =   0.0018519
        k(  648) = (   0.1458333  -0.2285345  -0.3074188), wk =   0.0009259
        k(  649) = (   0.1458333  -0.1804220   0.0204946), wk =   0.0018519
        k(  650) = (   0.1458333  -0.1804220   0.0614838), wk =   0.0018519
        k(  651) = (   0.1458333  -0.1804220   0.1024729), wk =   0.0018519
        k(  652) = (   0.1458333  -0.1804220   0.1434621), wk =   0.0018519
        k(  653) = (   0.1458333  -0.1804220   0.1844513), wk =   0.0018519
        k(  654) = (   0.1458333  -0.1804220   0.2254405), wk =   0.0018519
        k(  655) = (   0.1458333  -0.1804220   0.2664297), wk =   0.0018519
        k(  656) = (   0.1458333  -0.1804220  -0.3074188), wk =   0.0009259
        k(  657) = (   0.1458333  -0.1323094   0.0204946), wk =   0.0018519
        k(  658) = (   0.1458333  -0.1323094   0.0614838), wk =   0.0018519
        k(  659) = (   0.1458333  -0.1323094   0.1024729), wk =   0.0018519
        k(  660) = (   0.1458333  -0.1323094   0.1434621), wk =   0.0018519
        k(  661) = (   0.1458333  -0.1323094   0.1844513), wk =   0.0018519
        k(  662) = (   0.1458333  -0.1323094   0.2254405), wk =   0.0018519
        k(  663) = (   0.1458333  -0.1323094   0.2664297), wk =   0.0018519
        k(  664) = (   0.1458333  -0.1323094  -0.3074188), wk =   0.0009259
        k(  665) = (   0.1458333  -0.0841969   0.0204946), wk =   0.0009259
        k(  666) = (   0.1458333  -0.0841969   0.0614838), wk =   0.0009259
        k(  667) = (   0.1458333  -0.0841969   0.1024729), wk =   0.0009259
        k(  668) = (   0.1458333  -0.0841969   0.1434621), wk =   0.0009259
        k(  669) = (   0.1458333  -0.0841969   0.1844513), wk =   0.0009259
        k(  670) = (   0.1458333  -0.0841969   0.2254405), wk =   0.0009259
        k(  671) = (   0.1458333  -0.0841969   0.2664297), wk =   0.0009259
        k(  672) = (   0.1458333  -0.0841969  -0.3074188), wk =   0.0004630
        k(  673) = (   0.1875000   0.3247595   0.0204946), wk =   0.0009259
        k(  674) = (   0.1875000   0.3247595   0.0614838), wk =   0.0009259
        k(  675) = (   0.1875000   0.3247595   0.1024729), wk =   0.0009259
        k(  676) = (   0.1875000   0.3247595   0.1434621), wk =   0.0009259
        k(  677) = (   0.1875000   0.3247595   0.1844513), wk =   0.0009259
        k(  678) = (   0.1875000   0.3247595   0.2254405), wk =   0.0009259
        k(  679) = (   0.1875000   0.3247595   0.2664297), wk =   0.0009259
        k(  680) = (   0.1875000   0.3247595  -0.3074188), wk =   0.0004630
        k(  681) = (   0.1875000   0.3728720   0.0204946), wk =   0.0018519
        k(  682) = (   0.1875000   0.3728720   0.0614838), wk =   0.0018519
        k(  683) = (   0.1875000   0.3728720   0.1024729), wk =   0.0018519
        k(  684) = (   0.1875000   0.3728720   0.1434621), wk =   0.0018519
        k(  685) = (   0.1875000   0.3728720   0.1844513), wk =   0.0018519
        k(  686) = (   0.1875000   0.3728720   0.2254405), wk =   0.0018519
        k(  687) = (   0.1875000   0.3728720   0.2664297), wk =   0.0018519
        k(  688) = (   0.1875000   0.3728720  -0.3074188), wk =   0.0009259
        k(  689) = (   0.1875000   0.4209846   0.0204946), wk =   0.0018519
        k(  690) = (   0.1875000   0.4209846   0.0614838), wk =   0.0018519
        k(  691) = (   0.1875000   0.4209846   0.1024729), wk =   0.0018519
        k(  692) = (   0.1875000   0.4209846   0.1434621), wk =   0.0018519
        k(  693) = (   0.1875000   0.4209846   0.1844513), wk =   0.0018519
        k(  694) = (   0.1875000   0.4209846   0.2254405), wk =   0.0018519
        k(  695) = (   0.1875000   0.4209846   0.2664297), wk =   0.0018519
        k(  696) = (   0.1875000   0.4209846  -0.3074188), wk =   0.0009259
        k(  697) = (   0.1875000   0.4690971   0.0204946), wk =   0.0018519
        k(  698) = (   0.1875000   0.4690971   0.0614838), wk =   0.0018519
        k(  699) = (   0.1875000   0.4690971   0.1024729), wk =   0.0018519
        k(  700) = (   0.1875000   0.4690971   0.1434621), wk =   0.0018519
        k(  701) = (   0.1875000   0.4690971   0.1844513), wk =   0.0018519
        k(  702) = (   0.1875000   0.4690971   0.2254405), wk =   0.0018519
        k(  703) = (   0.1875000   0.4690971   0.2664297), wk =   0.0018519
        k(  704) = (   0.1875000   0.4690971  -0.3074188), wk =   0.0009259
        k(  705) = (   0.1875000   0.5172096   0.0204946), wk =   0.0018519
        k(  706) = (   0.1875000   0.5172096   0.0614838), wk =   0.0018519
        k(  707) = (   0.1875000   0.5172096   0.1024729), wk =   0.0018519
        k(  708) = (   0.1875000   0.5172096   0.1434621), wk =   0.0018519
        k(  709) = (   0.1875000   0.5172096   0.1844513), wk =   0.0018519
        k(  710) = (   0.1875000   0.5172096   0.2254405), wk =   0.0018519
        k(  711) = (   0.1875000   0.5172096   0.2664297), wk =   0.0018519
        k(  712) = (   0.1875000   0.5172096  -0.3074188), wk =   0.0009259
        k(  713) = (   0.1875000   0.5653221   0.0204946), wk =   0.0018519
        k(  714) = (   0.1875000   0.5653221   0.0614838), wk =   0.0018519
        k(  715) = (   0.1875000   0.5653221   0.1024729), wk =   0.0018519
        k(  716) = (   0.1875000   0.5653221   0.1434621), wk =   0.0018519
        k(  717) = (   0.1875000   0.5653221   0.1844513), wk =   0.0018519
        k(  718) = (   0.1875000   0.5653221   0.2254405), wk =   0.0018519
        k(  719) = (   0.1875000   0.5653221   0.2664297), wk =   0.0018519
        k(  720) = (   0.1875000   0.5653221  -0.3074188), wk =   0.0009259
        k(  721) = (   0.1875000   0.6134347   0.0204946), wk =   0.0018519
        k(  722) = (   0.1875000   0.6134347   0.0614838), wk =   0.0018519
        k(  723) = (   0.1875000   0.6134347   0.1024729), wk =   0.0018519
        k(  724) = (   0.1875000   0.6134347   0.1434621), wk =   0.0018519
        k(  725) = (   0.1875000   0.6134347   0.1844513), wk =   0.0018519
        k(  726) = (   0.1875000   0.6134347   0.2254405), wk =   0.0018519
        k(  727) = (   0.1875000   0.6134347   0.2664297), wk =   0.0018519
        k(  728) = (   0.1875000   0.6134347  -0.3074188), wk =   0.0009259
        k(  729) = (   0.1875000   0.6615472   0.0204946), wk =   0.0018519
        k(  730) = (   0.1875000   0.6615472   0.0614838), wk =   0.0018519
        k(  731) = (   0.1875000   0.6615472   0.1024729), wk =   0.0018519
        k(  732) = (   0.1875000   0.6615472   0.1434621), wk =   0.0018519
        k(  733) = (   0.1875000   0.6615472   0.1844513), wk =   0.0018519
        k(  734) = (   0.1875000   0.6615472   0.2254405), wk =   0.0018519
        k(  735) = (   0.1875000   0.6615472   0.2664297), wk =   0.0018519
        k(  736) = (   0.1875000   0.6615472  -0.3074188), wk =   0.0009259
        k(  737) = (   0.1875000  -0.4450408   0.0204946), wk =   0.0018519
        k(  738) = (   0.1875000  -0.4450408   0.0614838), wk =   0.0018519
        k(  739) = (   0.1875000  -0.4450408   0.1024729), wk =   0.0018519
        k(  740) = (   0.1875000  -0.4450408   0.1434621), wk =   0.0018519
        k(  741) = (   0.1875000  -0.4450408   0.1844513), wk =   0.0018519
        k(  742) = (   0.1875000  -0.4450408   0.2254405), wk =   0.0018519
        k(  743) = (   0.1875000  -0.4450408   0.2664297), wk =   0.0018519
        k(  744) = (   0.1875000  -0.4450408  -0.3074188), wk =   0.0009259
        k(  745) = (   0.1875000  -0.3969283   0.0204946), wk =   0.0018519
        k(  746) = (   0.1875000  -0.3969283   0.0614838), wk =   0.0018519
        k(  747) = (   0.1875000  -0.3969283   0.1024729), wk =   0.0018519
        k(  748) = (   0.1875000  -0.3969283   0.1434621), wk =   0.0018519
        k(  749) = (   0.1875000  -0.3969283   0.1844513), wk =   0.0018519
        k(  750) = (   0.1875000  -0.3969283   0.2254405), wk =   0.0018519
        k(  751) = (   0.1875000  -0.3969283   0.2664297), wk =   0.0018519
        k(  752) = (   0.1875000  -0.3969283  -0.3074188), wk =   0.0009259
        k(  753) = (   0.1875000  -0.3488158   0.0204946), wk =   0.0018519
        k(  754) = (   0.1875000  -0.3488158   0.0614838), wk =   0.0018519
        k(  755) = (   0.1875000  -0.3488158   0.1024729), wk =   0.0018519
        k(  756) = (   0.1875000  -0.3488158   0.1434621), wk =   0.0018519
        k(  757) = (   0.1875000  -0.3488158   0.1844513), wk =   0.0018519
        k(  758) = (   0.1875000  -0.3488158   0.2254405), wk =   0.0018519
        k(  759) = (   0.1875000  -0.3488158   0.2664297), wk =   0.0018519
        k(  760) = (   0.1875000  -0.3488158  -0.3074188), wk =   0.0009259
        k(  761) = (   0.1875000  -0.3007033   0.0204946), wk =   0.0018519
        k(  762) = (   0.1875000  -0.3007033   0.0614838), wk =   0.0018519
        k(  763) = (   0.1875000  -0.3007033   0.1024729), wk =   0.0018519
        k(  764) = (   0.1875000  -0.3007033   0.1434621), wk =   0.0018519
        k(  765) = (   0.1875000  -0.3007033   0.1844513), wk =   0.0018519
        k(  766) = (   0.1875000  -0.3007033   0.2254405), wk =   0.0018519
        k(  767) = (   0.1875000  -0.3007033   0.2664297), wk =   0.0018519
        k(  768) = (   0.1875000  -0.3007033  -0.3074188), wk =   0.0009259
        k(  769) = (   0.1875000  -0.2525907   0.0204946), wk =   0.0018519
        k(  770) = (   0.1875000  -0.2525907   0.0614838), wk =   0.0018519
        k(  771) = (   0.1875000  -0.2525907   0.1024729), wk =   0.0018519
        k(  772) = (   0.1875000  -0.2525907   0.1434621), wk =   0.0018519
        k(  773) = (   0.1875000  -0.2525907   0.1844513), wk =   0.0018519
        k(  774) = (   0.1875000  -0.2525907   0.2254405), wk =   0.0018519
        k(  775) = (   0.1875000  -0.2525907   0.2664297), wk =   0.0018519
        k(  776) = (   0.1875000  -0.2525907  -0.3074188), wk =   0.0009259
        k(  777) = (   0.1875000  -0.2044782   0.0204946), wk =   0.0018519
        k(  778) = (   0.1875000  -0.2044782   0.0614838), wk =   0.0018519
        k(  779) = (   0.1875000  -0.2044782   0.1024729), wk =   0.0018519
        k(  780) = (   0.1875000  -0.2044782   0.1434621), wk =   0.0018519
        k(  781) = (   0.1875000  -0.2044782   0.1844513), wk =   0.0018519
        k(  782) = (   0.1875000  -0.2044782   0.2254405), wk =   0.0018519
        k(  783) = (   0.1875000  -0.2044782   0.2664297), wk =   0.0018519
        k(  784) = (   0.1875000  -0.2044782  -0.3074188), wk =   0.0009259
        k(  785) = (   0.1875000  -0.1563657   0.0204946), wk =   0.0018519
        k(  786) = (   0.1875000  -0.1563657   0.0614838), wk =   0.0018519
        k(  787) = (   0.1875000  -0.1563657   0.1024729), wk =   0.0018519
        k(  788) = (   0.1875000  -0.1563657   0.1434621), wk =   0.0018519
        k(  789) = (   0.1875000  -0.1563657   0.1844513), wk =   0.0018519
        k(  790) = (   0.1875000  -0.1563657   0.2254405), wk =   0.0018519
        k(  791) = (   0.1875000  -0.1563657   0.2664297), wk =   0.0018519
        k(  792) = (   0.1875000  -0.1563657  -0.3074188), wk =   0.0009259
        k(  793) = (   0.1875000  -0.1082532   0.0204946), wk =   0.0009259
        k(  794) = (   0.1875000  -0.1082532   0.0614838), wk =   0.0009259
        k(  795) = (   0.1875000  -0.1082532   0.1024729), wk =   0.0009259
        k(  796) = (   0.1875000  -0.1082532   0.1434621), wk =   0.0009259
        k(  797) = (   0.1875000  -0.1082532   0.1844513), wk =   0.0009259
        k(  798) = (   0.1875000  -0.1082532   0.2254405), wk =   0.0009259
        k(  799) = (   0.1875000  -0.1082532   0.2664297), wk =   0.0009259
        k(  800) = (   0.1875000  -0.1082532  -0.3074188), wk =   0.0004630
        k(  801) = (   0.2291667   0.3969283   0.0204946), wk =   0.0009259
        k(  802) = (   0.2291667   0.3969283   0.0614838), wk =   0.0009259
        k(  803) = (   0.2291667   0.3969283   0.1024729), wk =   0.0009259
        k(  804) = (   0.2291667   0.3969283   0.1434621), wk =   0.0009259
        k(  805) = (   0.2291667   0.3969283   0.1844513), wk =   0.0009259
        k(  806) = (   0.2291667   0.3969283   0.2254405), wk =   0.0009259
        k(  807) = (   0.2291667   0.3969283   0.2664297), wk =   0.0009259
        k(  808) = (   0.2291667   0.3969283  -0.3074188), wk =   0.0004630
        k(  809) = (   0.2291667   0.4450408   0.0204946), wk =   0.0018519
        k(  810) = (   0.2291667   0.4450408   0.0614838), wk =   0.0018519
        k(  811) = (   0.2291667   0.4450408   0.1024729), wk =   0.0018519
        k(  812) = (   0.2291667   0.4450408   0.1434621), wk =   0.0018519
        k(  813) = (   0.2291667   0.4450408   0.1844513), wk =   0.0018519
        k(  814) = (   0.2291667   0.4450408   0.2254405), wk =   0.0018519
        k(  815) = (   0.2291667   0.4450408   0.2664297), wk =   0.0018519
        k(  816) = (   0.2291667   0.4450408  -0.3074188), wk =   0.0009259
        k(  817) = (   0.2291667   0.4931534   0.0204946), wk =   0.0018519
        k(  818) = (   0.2291667   0.4931534   0.0614838), wk =   0.0018519
        k(  819) = (   0.2291667   0.4931534   0.1024729), wk =   0.0018519
        k(  820) = (   0.2291667   0.4931534   0.1434621), wk =   0.0018519
        k(  821) = (   0.2291667   0.4931534   0.1844513), wk =   0.0018519
        k(  822) = (   0.2291667   0.4931534   0.2254405), wk =   0.0018519
        k(  823) = (   0.2291667   0.4931534   0.2664297), wk =   0.0018519
        k(  824) = (   0.2291667   0.4931534  -0.3074188), wk =   0.0009259
        k(  825) = (   0.2291667   0.5412659   0.0204946), wk =   0.0018519
        k(  826) = (   0.2291667   0.5412659   0.0614838), wk =   0.0018519
        k(  827) = (   0.2291667   0.5412659   0.1024729), wk =   0.0018519
        k(  828) = (   0.2291667   0.5412659   0.1434621), wk =   0.0018519
        k(  829) = (   0.2291667   0.5412659   0.1844513), wk =   0.0018519
        k(  830) = (   0.2291667   0.5412659   0.2254405), wk =   0.0018519
        k(  831) = (   0.2291667   0.5412659   0.2664297), wk =   0.0018519
        k(  832) = (   0.2291667   0.5412659  -0.3074188), wk =   0.0009259
        k(  833) = (   0.2291667   0.5893784   0.0204946), wk =   0.0018519
        k(  834) = (   0.2291667   0.5893784   0.0614838), wk =   0.0018519
        k(  835) = (   0.2291667   0.5893784   0.1024729), wk =   0.0018519
        k(  836) = (   0.2291667   0.5893784   0.1434621), wk =   0.0018519
        k(  837) = (   0.2291667   0.5893784   0.1844513), wk =   0.0018519
        k(  838) = (   0.2291667   0.5893784   0.2254405), wk =   0.0018519
        k(  839) = (   0.2291667   0.5893784   0.2664297), wk =   0.0018519
        k(  840) = (   0.2291667   0.5893784  -0.3074188), wk =   0.0009259
        k(  841) = (   0.2291667   0.6374909   0.0204946), wk =   0.0018519
        k(  842) = (   0.2291667   0.6374909   0.0614838), wk =   0.0018519
        k(  843) = (   0.2291667   0.6374909   0.1024729), wk =   0.0018519
        k(  844) = (   0.2291667   0.6374909   0.1434621), wk =   0.0018519
        k(  845) = (   0.2291667   0.6374909   0.1844513), wk =   0.0018519
        k(  846) = (   0.2291667   0.6374909   0.2254405), wk =   0.0018519
        k(  847) = (   0.2291667   0.6374909   0.2664297), wk =   0.0018519
        k(  848) = (   0.2291667   0.6374909  -0.3074188), wk =   0.0009259
        k(  849) = (   0.2291667   0.6856034   0.0204946), wk =   0.0018519
        k(  850) = (   0.2291667   0.6856034   0.0614838), wk =   0.0018519
        k(  851) = (   0.2291667   0.6856034   0.1024729), wk =   0.0018519
        k(  852) = (   0.2291667   0.6856034   0.1434621), wk =   0.0018519
        k(  853) = (   0.2291667   0.6856034   0.1844513), wk =   0.0018519
        k(  854) = (   0.2291667   0.6856034   0.2254405), wk =   0.0018519
        k(  855) = (   0.2291667   0.6856034   0.2664297), wk =   0.0018519
        k(  856) = (   0.2291667   0.6856034  -0.3074188), wk =   0.0009259
        k(  857) = (   0.2291667  -0.4209846   0.0204946), wk =   0.0018519
        k(  858) = (   0.2291667  -0.4209846   0.0614838), wk =   0.0018519
        k(  859) = (   0.2291667  -0.4209846   0.1024729), wk =   0.0018519
        k(  860) = (   0.2291667  -0.4209846   0.1434621), wk =   0.0018519
        k(  861) = (   0.2291667  -0.4209846   0.1844513), wk =   0.0018519
        k(  862) = (   0.2291667  -0.4209846   0.2254405), wk =   0.0018519
        k(  863) = (   0.2291667  -0.4209846   0.2664297), wk =   0.0018519
        k(  864) = (   0.2291667  -0.4209846  -0.3074188), wk =   0.0009259
        k(  865) = (   0.2291667  -0.3728720   0.0204946), wk =   0.0018519
        k(  866) = (   0.2291667  -0.3728720   0.0614838), wk =   0.0018519
        k(  867) = (   0.2291667  -0.3728720   0.1024729), wk =   0.0018519
        k(  868) = (   0.2291667  -0.3728720   0.1434621), wk =   0.0018519
        k(  869) = (   0.2291667  -0.3728720   0.1844513), wk =   0.0018519
        k(  870) = (   0.2291667  -0.3728720   0.2254405), wk =   0.0018519
        k(  871) = (   0.2291667  -0.3728720   0.2664297), wk =   0.0018519
        k(  872) = (   0.2291667  -0.3728720  -0.3074188), wk =   0.0009259
        k(  873) = (   0.2291667  -0.3247595   0.0204946), wk =   0.0018519
        k(  874) = (   0.2291667  -0.3247595   0.0614838), wk =   0.0018519
        k(  875) = (   0.2291667  -0.3247595   0.1024729), wk =   0.0018519
        k(  876) = (   0.2291667  -0.3247595   0.1434621), wk =   0.0018519
        k(  877) = (   0.2291667  -0.3247595   0.1844513), wk =   0.0018519
        k(  878) = (   0.2291667  -0.3247595   0.2254405), wk =   0.0018519
        k(  879) = (   0.2291667  -0.3247595   0.2664297), wk =   0.0018519
        k(  880) = (   0.2291667  -0.3247595  -0.3074188), wk =   0.0009259
        k(  881) = (   0.2291667  -0.2766470   0.0204946), wk =   0.0018519
        k(  882) = (   0.2291667  -0.2766470   0.0614838), wk =   0.0018519
        k(  883) = (   0.2291667  -0.2766470   0.1024729), wk =   0.0018519
        k(  884) = (   0.2291667  -0.2766470   0.1434621), wk =   0.0018519
        k(  885) = (   0.2291667  -0.2766470   0.1844513), wk =   0.0018519
        k(  886) = (   0.2291667  -0.2766470   0.2254405), wk =   0.0018519
        k(  887) = (   0.2291667  -0.2766470   0.2664297), wk =   0.0018519
        k(  888) = (   0.2291667  -0.2766470  -0.3074188), wk =   0.0009259
        k(  889) = (   0.2291667  -0.2285345   0.0204946), wk =   0.0018519
        k(  890) = (   0.2291667  -0.2285345   0.0614838), wk =   0.0018519
        k(  891) = (   0.2291667  -0.2285345   0.1024729), wk =   0.0018519
        k(  892) = (   0.2291667  -0.2285345   0.1434621), wk =   0.0018519
        k(  893) = (   0.2291667  -0.2285345   0.1844513), wk =   0.0018519
        k(  894) = (   0.2291667  -0.2285345   0.2254405), wk =   0.0018519
        k(  895) = (   0.2291667  -0.2285345   0.2664297), wk =   0.0018519
        k(  896) = (   0.2291667  -0.2285345  -0.3074188), wk =   0.0009259
[...]

          k = 0.4375-0.2526 0.0205 (  5175 PWs)   bands (ev):

    -4.5389  -4.3498  -2.9019  -2.8769  -2.7858  -2.7425  -2.6969  -2.6858
    -2.6167  -2.5760  -1.6326  -0.7434   4.1680   5.4087   6.1965   7.8668
     8.5256   9.6322  15.5591  16.0687

     occupation numbers 
     1.0000   1.0000   1.0000   1.0000   1.0000   1.0000   1.0000   1.0000
     1.0000   1.0000   1.0000   1.0000   1.0000   1.0000   1.0000   1.0000
     1.0000   1.0000   0.0000   0.0000

          k = 0.4375-0.2526 0.0615 (  5168 PWs)   bands (ev):

    -4.5302  -4.3494  -2.9045  -2.8727  -2.7836  -2.7580  -2.6998  -2.6730
    -2.6164  -2.5782  -1.6203  -0.7690   4.1014   5.3217   6.3515   7.9000
     8.6251   9.5860  15.4608  15.8080

     occupation numbers 
     1.0000   1.0000   1.0000   1.0000   1.0000   1.0000   1.0000   1.0000
     1.0000   1.0000   1.0000   1.0000   1.0000   1.0000   1.0000   1.0000
     1.0000   1.0000   0.0000   0.0000

          k = 0.4375-0.2526 0.1025 (  5165 PWs)   bands (ev):

    -4.5136  -4.3491  -2.9087  -2.8645  -2.7961  -2.7601  -2.7058  -2.6599
    -2.6159  -2.5822  -1.5954  -0.8188   4.0099   5.1530   6.6393   7.9655
     8.7832   9.4970  15.1807  15.7351

     occupation numbers 
     1.0000   1.0000   1.0000   1.0000   1.0000   1.0000   1.0000   1.0000
     1.0000   1.0000   1.0000   1.0000   1.0000   1.0000   1.0000   1.0000
     1.0000   1.0000   0.0000   0.0000

          k = 0.4375-0.2526 0.1435 (  5166 PWs)   bands (ev):

    -4.4909  -4.3499  -2.9131  -2.8526  -2.8213  -2.7467  -2.7151  -2.6512
    -2.6150  -2.5872  -1.5574  -0.8896   3.9352   4.9351   7.0135   8.0613
     8.9400   9.3715  14.9015  15.7143

     occupation numbers 
     1.0000   1.0000   1.0000   1.0000   1.0000   1.0000   1.0000   1.0000
     1.0000   1.0000   1.0000   1.0000   1.0000   1.0000   1.0000   1.0000
     1.0000   1.0000   0.0000   0.0000

          k = 0.4375-0.2526 0.1845 (  5158 PWs)   bands (ev):

    -4.4645  -4.3532  -2.9161  -2.8470  -2.8376  -2.7290  -2.7277  -2.6481
    -2.6136  -2.5926  -1.5058  -0.9767   3.9014   4.7016   7.4318   8.1845
     9.0352   9.2176  14.7231  15.6459

     occupation numbers 
     1.0000   1.0000   1.0000   1.0000   1.0000   1.0000   1.0000   1.0000
     1.0000   1.0000   1.0000   1.0000   1.0000   1.0000   1.0000   1.0000
     1.0000   1.0000   0.0000   0.0000

          k = 0.4375-0.2526 0.2254 (  5155 PWs)   bands (ev):

    -4.4371  -4.3602  -2.9163  -2.8701  -2.8200  -2.7434  -2.7096  -2.6511
    -2.6117  -2.5978  -1.4404  -1.0738   3.9188   4.4763   7.8601   8.3315
     9.0220   9.0444  14.6816  15.4876

     occupation numbers 
     1.0000   1.0000   1.0000   1.0000   1.0000   1.0000   1.0000   1.0000
     1.0000   1.0000   1.0000   1.0000   1.0000   1.0000   1.0000   1.0000
     1.0000   1.0000   0.0000   0.0000

          k = 0.4375-0.2526 0.2664 (  5160 PWs)   bands (ev):

    -4.4113  -4.3720  -2.9123  -2.8893  -2.8008  -2.7614  -2.6904  -2.6598
    -2.6093  -2.6023  -1.3618  -1.1743   3.9894   4.2754   8.2667   8.4972
     8.8610   8.8798  14.7808  15.2491

     occupation numbers 
     1.0000   1.0000   1.0000   1.0000   1.0000   1.0000   1.0000   1.0000
     1.0000   1.0000   1.0000   1.0000   1.0000   1.0000   1.0000   1.0000
     1.0000   1.0000   0.0000   0.0000

          k = 0.4375-0.2526-0.3074 (  5154 PWs)   bands (ev):

    -4.3892  -4.3892  -2.9034  -2.9034  -2.7809  -2.7809  -2.6733  -2.6733
    -2.6062  -2.6062  -1.2720  -1.2720   4.1102   4.1102   8.6183   8.6183
     8.6760   8.6760  14.9895  14.9895

     occupation numbers 
     1.0000   1.0000   1.0000   1.0000   1.0000   1.0000   1.0000   1.0000
     1.0000   1.0000   1.0000   1.0000   1.0000   1.0000   1.0000   1.0000
     1.0000   1.0000   0.0000   0.0000

          k = 0.4792 0.8299 0.0205 (  5172 PWs)   bands (ev):

    -4.5123  -4.3475  -2.9038  -2.8776  -2.7789  -2.7442  -2.6915  -2.6813
    -2.6109  -2.5763  -1.3959  -0.8387   4.0826   5.2679   6.3307   7.7295
     8.3153   9.5210  15.6813  16.0753

     occupation numbers 
     1.0000   1.0000   1.0000   1.0000   1.0000   1.0000   1.0000   1.0000
     1.0000   1.0000   1.0000   1.0000   1.0000   1.0000   1.0000   1.0000
     1.0000   1.0000   0.0000   0.0000

          k = 0.4792 0.8299 0.0615 (  5168 PWs)   bands (ev):

    -4.5043  -4.3468  -2.9054  -2.8743  -2.7725  -2.7640  -2.6946  -2.6681
    -2.6107  -2.5786  -1.3876  -0.8528   4.0169   5.1567   6.4911   7.7658
     8.4286   9.4729  15.6610  15.6970

     occupation numbers 
     1.0000   1.0000   1.0000   1.0000   1.0000   1.0000   1.0000   1.0000
     1.0000   1.0000   1.0000   1.0000   1.0000   1.0000   1.0000   1.0000
     1.0000   1.0000   0.0000   0.0000

          k = 0.4792 0.8299 0.1025 (  5159 PWs)   bands (ev):

    -4.4893  -4.3459  -2.9087  -2.8667  -2.7909  -2.7606  -2.7008  -2.6546
    -2.6103  -2.5828  -1.3708  -0.8805   3.9208   4.9661   6.7725   7.8381
     8.6115   9.3814  15.2731  15.7173

     occupation numbers 
     1.0000   1.0000   1.0000   1.0000   1.0000   1.0000   1.0000   1.0000
     1.0000   1.0000   1.0000   1.0000   1.0000   1.0000   1.0000   1.0000
     1.0000   1.0000   0.0000   0.0000

          k = 0.4792 0.8299 0.1435 (  5153 PWs)   bands (ev):

    -4.4689  -4.3458  -2.9127  -2.8547  -2.8192  -2.7445  -2.7103  -2.6454
    -2.6097  -2.5879  -1.3453  -0.9210   3.8333   4.7359   7.1261   7.9464
     8.7984   9.2571  14.9627  15.7161

     occupation numbers 
     1.0000   1.0000   1.0000   1.0000   1.0000   1.0000   1.0000   1.0000
     1.0000   1.0000   1.0000   1.0000   1.0000   1.0000   1.0000   1.0000
     1.0000   1.0000   0.0000   0.0000

          k = 0.4792 0.8299 0.1845 (  5160 PWs)   bands (ev):

    -4.4451  -4.3479  -2.9157  -2.8462  -2.8390  -2.7256  -2.7234  -2.6422
    -2.6088  -2.5930  -1.3107  -0.9724   3.7809   4.4983   7.5079   8.0926
     8.9049   9.1313  14.7646  15.6533

     occupation numbers 
     1.0000   1.0000   1.0000   1.0000   1.0000   1.0000   1.0000   1.0000
     1.0000   1.0000   1.0000   1.0000   1.0000   1.0000   1.0000   1.0000
     1.0000   1.0000   0.0000   0.0000

          k = 0.4792 0.8299 0.2254 (  5170 PWs)   bands (ev):

    -4.4206  -4.3533  -2.9161  -2.8701  -2.8205  -2.7397  -2.7056  -2.6454
    -2.6076  -2.5974  -1.2672  -1.0315   3.7773   4.2755   7.8740   8.2833
     8.8260   9.0683  14.7061  15.4951

     occupation numbers 
     1.0000   1.0000   1.0000   1.0000   1.0000   1.0000   1.0000   1.0000
     1.0000   1.0000   1.0000   1.0000   1.0000   1.0000   1.0000   1.0000
     1.0000   1.0000   0.0000   0.0000

          k = 0.4792 0.8299 0.2664 (  5166 PWs)   bands (ev):

    -4.3975  -4.3632  -2.9124  -2.8895  -2.8002  -2.7587  -2.6859  -2.6544
    -2.6059  -2.6009  -1.2154  -1.0943   3.8276   4.0828   8.1819   8.5236
     8.6432   8.9696  14.7924  15.2546

     occupation numbers 
     1.0000   1.0000   1.0000   1.0000   1.0000   1.0000   1.0000   1.0000
     1.0000   1.0000   1.0000   1.0000   1.0000   1.0000   1.0000   1.0000
     1.0000   1.0000   0.0000   0.0000

          k = 0.4792 0.8299-0.3074 (  5164 PWs)   bands (ev):

    -4.3780  -4.3780  -2.9037  -2.9037  -2.7792  -2.7792  -2.6683  -2.6683
    -2.6037  -2.6037  -1.1569  -1.1569   3.9309   3.9309   8.4292   8.4292
     8.7756   8.7756  14.9950  14.9950

     occupation numbers 
     1.0000   1.0000   1.0000   1.0000   1.0000   1.0000   1.0000   1.0000
     1.0000   1.0000   1.0000   1.0000   1.0000   1.0000   1.0000   1.0000
     1.0000   1.0000   0.0000   0.0000

          k = 0.4792-0.2766 0.0205 (  5180 PWs)   bands (ev):

    -4.5184  -4.3476  -2.9034  -2.8771  -2.7829  -2.7442  -2.6912  -2.6814
    -2.6100  -2.5746  -1.4378  -0.8289   4.0760   5.2784   6.3017   7.8188
     8.3480   9.5991  15.5589  16.0240

     occupation numbers 
     1.0000   1.0000   1.0000   1.0000   1.0000   1.0000   1.0000   1.0000
     1.0000   1.0000   1.0000   1.0000   1.0000   1.0000   1.0000   1.0000
     1.0000   1.0000   0.0000   0.0000

          k = 0.4792-0.2766 0.0615 (  5168 PWs)   bands (ev):

    -4.5103  -4.3470  -2.9060  -2.8728  -2.7771  -2.7635  -2.6942  -2.6683
    -2.6098  -2.5768  -1.4289  -0.8446   4.0100   5.1692   6.4653   7.8523
     8.4595   9.5524  15.5364  15.6547

     occupation numbers 
     1.0000   1.0000   1.0000   1.0000   1.0000   1.0000   1.0000   1.0000
     1.0000   1.0000   1.0000   1.0000   1.0000   1.0000   1.0000   1.0000
     1.0000   1.0000   0.0000   0.0000

          k = 0.4792-0.2766 0.1025 (  5160 PWs)   bands (ev):

    -4.4949  -4.3463  -2.9103  -2.8644  -2.7924  -2.7632  -2.7004  -2.6547
    -2.6094  -2.5807  -1.4109  -0.8757   3.9143   4.9803   6.7542   7.9182
     8.6400   9.4625  15.2052  15.6150

     occupation numbers 
     1.0000   1.0000   1.0000   1.0000   1.0000   1.0000   1.0000   1.0000
     1.0000   1.0000   1.0000   1.0000   1.0000   1.0000   1.0000   1.0000
     1.0000   1.0000   0.0000   0.0000

          k = 0.4792-0.2766 0.1435 (  5150 PWs)   bands (ev):

    -4.4740  -4.3465  -2.9149  -2.8521  -2.8206  -2.7469  -2.7100  -2.6455
    -2.6088  -2.5856  -1.3834  -0.9208   3.8284   4.7509   7.1215   8.0147
     8.8273   9.3358  14.8927  15.6144

     occupation numbers 
     1.0000   1.0000   1.0000   1.0000   1.0000   1.0000   1.0000   1.0000
     1.0000   1.0000   1.0000   1.0000   1.0000   1.0000   1.0000   1.0000
     1.0000   1.0000   0.0000   0.0000

          k = 0.4792-0.2766 0.1845 (  5164 PWs)   bands (ev):

    -4.4496  -4.3489  -2.9180  -2.8477  -2.8366  -2.7275  -2.7230  -2.6422
    -2.6078  -2.5907  -1.3461  -0.9776   3.7788   4.5129   7.5277   8.1389
     8.9593   9.1804  14.6925  15.5579

     occupation numbers 
     1.0000   1.0000   1.0000   1.0000   1.0000   1.0000   1.0000   1.0000
     1.0000   1.0000   1.0000   1.0000   1.0000   1.0000   1.0000   1.0000
     1.0000   1.0000   0.0000   0.0000

          k = 0.4792-0.2766 0.2254 (  5167 PWs)   bands (ev):

    -4.4244  -4.3547  -2.9184  -2.8718  -2.8184  -2.7392  -2.7068  -2.6452
    -2.6065  -2.5953  -1.2992  -1.0426   3.7786   4.2888   7.9398   8.2869
     8.9854   9.0057  14.6341  15.4093

     occupation numbers 
     1.0000   1.0000   1.0000   1.0000   1.0000   1.0000   1.0000   1.0000
     1.0000   1.0000   1.0000   1.0000   1.0000   1.0000   1.0000   1.0000
     1.0000   1.0000   0.0000   0.0000

          k = 0.4792-0.2766 0.2664 (  5169 PWs)   bands (ev):

    -4.4008  -4.3651  -2.9146  -2.8914  -2.7986  -2.7579  -2.6865  -2.6542
    -2.6047  -2.5992  -1.2431  -1.1114   3.8324   4.0938   8.3257   8.4539
     8.8207   8.8806  14.7214  15.1776

     occupation numbers 
     1.0000   1.0000   1.0000   1.0000   1.0000   1.0000   1.0000   1.0000
     1.0000   1.0000   1.0000   1.0000   1.0000   1.0000   1.0000   1.0000
     1.0000   1.0000   0.0000   0.0000

          k = 0.4792-0.2766-0.3074 (  5176 PWs)   bands (ev):

    -4.3806  -4.3806  -2.9057  -2.9057  -2.7781  -2.7781  -2.6684  -2.6684
    -2.6024  -2.6024  -1.1796  -1.1796   3.9391   3.9391   8.6341   8.6341
     8.6512   8.6512  14.9231  14.9231

     occupation numbers 
     1.0000   1.0000   1.0000   1.0000   1.0000   1.0000   1.0000   1.0000
     1.0000   1.0000   1.0000   1.0000   1.0000   1.0000   1.0000   1.0000
     1.0000   1.0000   0.0000   0.0000

     highest occupied, lowest unoccupied level (ev):    10.5867   12.5927

!    total energy              =    -346.92310168 Ry
     estimated scf accuracy    <       0.00000040 Ry

     The total energy is the sum of the following terms:
     one-electron contribution =    -105.17930948 Ry
     hartree contribution      =      87.11079361 Ry
     xc contribution           =     -95.20443356 Ry
     ewald contribution        =    -233.65015226 Ry

     convergence has been achieved in  14 iterations

     Forces acting on atoms (cartesian axes, Ry/au):

     atom    1 type  1   force =     0.00000000   -0.00000000   -0.00462909
     atom    2 type  1   force =     0.00000000    0.00000000   -0.00462909
     atom    3 type  2   force =     0.00000000    0.00000000    0.00462909
     atom    4 type  2   force =     0.00000000    0.00000000    0.00462909
     The non-local contrib.  to forces
     atom    1 type  1   force =     0.00000000   -0.00000000   -0.00522239
     atom    2 type  1   force =     0.00000000    0.00000000   -0.00522239
     atom    3 type  2   force =     0.00000000   -0.00000000    0.00748054
     atom    4 type  2   force =     0.00000000   -0.00000000    0.00748054
     The ionic contribution  to forces
     atom    1 type  1   force =     0.00000003   -0.00000002    0.06258240
     atom    2 type  1   force =    -0.00000003    0.00000002    0.06258240
     atom    3 type  2   force =     0.00000003   -0.00000002   -0.06258240
     atom    4 type  2   force =    -0.00000003    0.00000002   -0.06258240
     The local contribution  to forces
     atom    1 type  1   force =     0.00000016   -0.00000009   -0.06184818
     atom    2 type  1   force =    -0.00000049    0.00000028   -0.06184820
     atom    3 type  2   force =     0.00000002   -0.00000001    0.06007105
     atom    4 type  2   force =    -0.00000006    0.00000004    0.06007109
     The core correction contribution to forces
     atom    1 type  1   force =     0.00000000   -0.00000000   -0.00025202
     atom    2 type  1   force =    -0.00000001    0.00000001   -0.00025202
     atom    3 type  2   force =    -0.00000000    0.00000000   -0.00036345
     atom    4 type  2   force =     0.00000000   -0.00000000   -0.00036345
     The Hubbard contrib.    to forces
     atom    1 type  1   force =     0.00000000    0.00000000    0.00000000
     atom    2 type  1   force =     0.00000000    0.00000000    0.00000000
     atom    3 type  2   force =     0.00000000    0.00000000    0.00000000
     atom    4 type  2   force =     0.00000000    0.00000000    0.00000000
     The SCF correction term to forces
     atom    1 type  1   force =     0.00000000   -0.00000000    0.00009823
     atom    2 type  1   force =    -0.00000000    0.00000000    0.00009823
     atom    3 type  2   force =    -0.00000000    0.00000000    0.00001046
     atom    4 type  2   force =     0.00000000   -0.00000000    0.00001046

     Total force =     0.009258     Total SCF correction =     0.000140


     Computing stress (Cartesian axis) and pressure

          total   stress  (Ry/bohr**3)                   (kbar)     P=        2.49
  -0.00001881  -0.00000000  -0.00000000           -2.77       -0.00       -0.00
  -0.00000000  -0.00001881  -0.00000000           -0.00       -2.77       -0.00
  -0.00000000  -0.00000000   0.00008832           -0.00       -0.00       12.99

     kinetic stress (kbar)  89570.25      0.00      0.00
                                0.00  89570.25      0.00
                                0.00      0.00  89575.30

     local   stress (kbar)   5651.56     -0.00      0.00
                               -0.00   5651.56     -0.00
                                0.00     -0.00   2948.88

     nonloc. stress (kbar) -60090.31      0.00      0.00
                                0.00 -60090.31      0.00
                                0.00      0.00 -60088.02

     hartree stress (kbar)  13554.27     -0.00     -0.00
                               -0.00  13554.27     -0.00
                               -0.00     -0.00  14670.71

     exc-cor stress (kbar)  12989.49      0.00      0.00
                                0.00  12989.49     -0.00
                                0.00     -0.00  12990.23

     corecor stress (kbar) -23792.99      0.00     -0.00
                                0.00 -23792.99      0.00
                               -0.00      0.00 -23793.08

     ewald   stress (kbar) -37885.03      0.00      0.00
                                0.00 -37885.03     -0.00
                                0.00     -0.00 -36291.02

     hubbard stress (kbar)      0.00      0.00      0.00
                                0.00      0.00      0.00
                                0.00      0.00      0.00

     DFT-D   stress (kbar)      0.00      0.00      0.00
                                0.00      0.00      0.00
                                0.00      0.00      0.00

     XDM     stress (kbar)      0.00      0.00      0.00
                                0.00      0.00      0.00
                                0.00      0.00      0.00

     dft-nl  stress (kbar)      0.00      0.00      0.00
                                0.00      0.00      0.00
                                0.00      0.00      0.00

     TS-vdW  stress (kbar)      0.00      0.00      0.00
                                0.00      0.00      0.00
                                0.00      0.00      0.00

     MDB     stress (kbar)      0.00      0.00      0.00
                                0.00      0.00      0.00
                                0.00      0.00      0.00

     3D-RISM stress (kbar)      0.00      0.00      0.00
                                0.00      0.00      0.00
                                0.00      0.00      0.00


     Writing all to output data dir /home/sachs/software/q-e/tempdir/gan.save/ :
     XML data file, charge density, pseudopotentials, collected wavefunctions

     init_run     :     30.12s CPU     30.98s WALL (       1 calls)
     electrons    :   1301.76s CPU   1343.32s WALL (       1 calls)
     forces       :      8.97s CPU      9.33s WALL (       1 calls)
     stress       :     33.46s CPU     34.63s WALL (       1 calls)

     Called by init_run:
     wfcinit      :     29.41s CPU     30.17s WALL (       1 calls)
     wfcinit:atom :      0.28s CPU      0.28s WALL (    1248 calls)
     wfcinit:wfcr :     27.23s CPU     27.97s WALL (    1248 calls)
     potinit      :      0.21s CPU      0.22s WALL (       1 calls)
     hinit0       :      0.30s CPU      0.32s WALL (       1 calls)

     Called by electrons:
     c_bands      :   1199.78s CPU   1238.75s WALL (      14 calls)
     sum_band     :    101.64s CPU    103.89s WALL (      14 calls)
     v_of_rho     :      0.25s CPU      0.25s WALL (      15 calls)
     v_h          :      0.01s CPU      0.01s WALL (      15 calls)
     v_xc         :      0.27s CPU      0.27s WALL (      17 calls)
     mix_rho      :      0.05s CPU      0.06s WALL (      14 calls)

     Called by c_bands:
     init_us_2    :     17.55s CPU     18.17s WALL (   38688 calls)
     ccgdiagg     :    933.06s CPU    965.95s WALL (   17472 calls)
     wfcrot       :    281.03s CPU    287.14s WALL (   17472 calls)

     Called by sum_band:
     sum_band:wei :      0.00s CPU      0.01s WALL (      14 calls)
     sum_band:loo :    101.60s CPU    103.84s WALL (      14 calls)
     sum_band:buf :      0.52s CPU      0.54s WALL (   17472 calls)
     sum_band:ini :      8.03s CPU      8.23s WALL (   17472 calls)

     Called by *cgdiagg:
     h_psi        :    919.05s CPU    949.02s WALL (  936678 calls)

     Called by h_psi:
     h_psi:calbec :    121.55s CPU    126.51s WALL (  936678 calls)
     vloc_psi     :    696.19s CPU    718.63s WALL (  936678 calls)
                                        0.00s GPU  (  936678 calls)
     add_vuspsi   :     90.11s CPU     92.55s WALL (  936678 calls)
     hs_1psi      :    685.56s CPU    709.53s WALL (  919206 calls)
     s_1psi       :     94.18s CPU     97.01s WALL (  919206 calls)

     General routines
     calbec       :    243.45s CPU    253.46s WALL ( 1877100 calls)
     fft          :      0.40s CPU      0.41s WALL (     202 calls)
     ffts         :      0.19s CPU      0.19s WALL (      29 calls)
     fftw         :    670.10s CPU    690.82s WALL ( 2901708 calls)
     interpolate  :      0.19s CPU      0.19s WALL (      15 calls)

     Parallel routines

     PWSCF        :  23m28.41s CPU  24m46.69s WALL


   This run was terminated on:  18: 5:17  24Feb2026            

=------------------------------------------------------------------------------=
   JOB DONE.
=------------------------------------------------------------------------------=
