
     Program PHONON v.7.5 starts on 25Feb2026 at 12: 6: 6 
        Git branch: develop
        Last git commit: 797f00f1d3f390f642411209b167af6668f3cb83
        Last git commit date: Mon Dec 8 18:25:28 2025 +0000
        Last git commit subject: Merge branch 'uniform_uv' into 'develop'

     This program is part of the open-source Quantum ESPRESSO suite
     for quantum simulation of materials; please cite
         "P. Giannozzi et al., J. Phys.:Condens. Matter 21 395502 (2009);
         "P. Giannozzi et al., J. Phys.:Condens. Matter 29 465901 (2017);
         "P. Giannozzi et al., J. Chem. Phys. 152 154105 (2020);
          URL http://www.quantum-espresso.org", 
     in publications or presentations arising from this work. More details at
     http://www.quantum-espresso.org/quote

     Parallel version (MPI), running on   256 processors

     MPI processes distributed on     1 nodes
     1537923 MiB available memory on the printing compute node when the environment starts

     Waiting for input...
     Reading input from standard input
      Title line not specified: using 'default'.

     Reading xml data from directory:

     /home/sachs/software/q-e/tempdir/gaasLDA.save/

     K-points division:     npool     =      16
     R & G space division:  proc/nbgrp/npool/nimage =      16
     Subspace diagonalization in iterative solution of the eigenvalue problem:
     a serial algorithm will be used


     IMPORTANT: XC functional enforced from input :
     Exchange-correlation= PW
                           (   1   4   0   0   0   0   0)
     Any further DFT definition will be discarded
     Please, verify this is what you really want


     Parallelization info
     --------------------
     sticks:   dense  smooth     PW     G-vecs:    dense   smooth      PW
     Min         145      95     28                 4599     2495     410
     Max         147      96     29                 4601     2499     412
     Sum        2335    1531    463                73601    39957    6567

     Using Slab Decomposition

     Reading collected, re-writing distributed wavefunctions in /home/sachs/software/q-e/tempdir/

     Number and degeneracy of irreps per q-point
       N         xq(1)         xq(2)         xq(3)   N irreps
       1   0.000000000   0.000000000   0.000000000       2
        3   3

     Calculation of q =    0.0000000   0.0000000   0.0000000

     default                                                                    

     bravais-lattice index     =            2
     lattice parameter (alat)  =      10.5849  a.u.
     unit-cell volume          =     296.4844 (a.u.)^3
     number of atoms/cell      =            2
     number of atomic types    =            2
     kinetic-energy cut-off    =     100.0000  Ry
     charge density cut-off    =     600.0000  Ry
     convergence threshold     =      1.0E-14
     beta                      =       0.7000
     number of iterations used =            4
     Exchange-correlation= PW
                           (   1   4   0   0   0   0   0)


     celldm(1)=   10.58491  celldm(2)=    0.00000  celldm(3)=    0.00000
     celldm(4)=    0.00000  celldm(5)=    0.00000  celldm(6)=    0.00000

     crystal axes: (cart. coord. in units of alat)
               a(1) = ( -0.5000  0.0000  0.5000 )  
               a(2) = (  0.0000  0.5000  0.5000 )  
               a(3) = ( -0.5000  0.5000  0.0000 )  

     reciprocal axes: (cart. coord. in units 2 pi/alat)
               b(1) = ( -1.0000 -1.0000  1.0000 )  
               b(2) = (  1.0000  1.0000  1.0000 )  
               b(3) = ( -1.0000  1.0000 -1.0000 )  


     Atoms inside the unit cell: 

     Cartesian axes

     site n.  atom      mass           positions (alat units)
        1  Ga     69.7230   tau(    1) = (    0.00000    0.00000    0.00000  )
        2  As     74.9210   tau(    2) = (   -0.25000    0.25000    0.25000  )

     Computing dynamical matrix for 
                    q = (   0.0000000   0.0000000   0.0000000 )

     25 Sym.Ops. (with q -> -q+G )


     G cutoff = 1702.8095  (   4599 G-vectors)     FFT grid: ( 60, 60, 60)
     G cutoff = 1135.2063  (   2499 G-vectors)  smooth grid: ( 48, 48, 48)
     number of k points=   770

     PseudoPot. # 1 for Ga read from file:
     /home/sachs/software/q-e/Pseudofolder/nc-sr-04_pw_LDA_standard_upf/Ga.upf
     MD5 check sum: 1297264db1911d3fa8c63c42f023f390
     Pseudo is Norm-conserving + core correction, Zval = 13.0
     Generated using ONCVPSP code by D. R. Hamann
     Using radial grid of 1858 points,  6 beta functions with: 
                l(1) =   0
                l(2) =   0
                l(3) =   1
                l(4) =   1
                l(5) =   2
                l(6) =   2

     PseudoPot. # 2 for As read from file:
     /home/sachs/software/q-e/Pseudofolder/nc-sr-04_pw_LDA_standard_upf/As.upf
     MD5 check sum: 33c531620a5edaf59d417d4ab58437b1
     Pseudo is Norm-conserving + core correction, Zval = 15.0
     Generated using ONCVPSP code by D. R. Hamann
     Using radial grid of 1326 points,  6 beta functions with: 
                l(1) =   0
                l(2) =   0
                l(3) =   1
                l(4) =   1
                l(5) =   2
                l(6) =   2

     Mode symmetry, T_d (-43m)  point group:


     Electric field:
     Dielectric constant
     Born effective charges as d Force / d E


     Atomic displacements:
     There are    2 irreducible representations

     Representation     1      3 modes -  To be done

     Representation     2      3 modes -  To be done



     Alpha used in Ewald sum =   2.8000
     PHONON       :      3.17s CPU     13.40s WALL


     Electric Fields Calculation

      iter #   1 total cpu time :    42.2 secs   av.it.:   8.1
      thresh= 1.000E-02 alpha_mix =  0.700 |ddv_scf|^2 =  2.885E-08

      iter #   2 total cpu time :    62.5 secs   av.it.:  17.0
      thresh= 1.698E-05 alpha_mix =  0.700 |ddv_scf|^2 =  1.689E-09

      iter #   3 total cpu time :    83.2 secs   av.it.:  17.1
      thresh= 4.110E-06 alpha_mix =  0.700 |ddv_scf|^2 =  9.767E-11

      iter #   4 total cpu time :   105.7 secs   av.it.:  17.0
      thresh= 9.883E-07 alpha_mix =  0.700 |ddv_scf|^2 =  1.579E-12

      iter #   5 total cpu time :   126.0 secs   av.it.:  16.8
      thresh= 1.257E-07 alpha_mix =  0.700 |ddv_scf|^2 =  1.080E-14

      iter #   6 total cpu time :   141.8 secs   av.it.:  17.2
      thresh= 1.039E-08 alpha_mix =  0.700 |ddv_scf|^2 =  1.672E-15

     End of electric fields calculation

          Dielectric constant in cartesian axis 

          (      13.973429370       0.000000000       0.000000000 )
          (       0.000000000      13.973429370       0.000000000 )
          (       0.000000000       0.000000000      13.973429370 )

          Effective charges (d Force / dE) in cartesian axis without acoustic sum rule applied (asr)

           atom    1  Ga    Mean Z*:        2.04744
      Ex  (        2.04744       -0.00000       -0.00000 )
      Ey  (       -0.00000        2.04744        0.00000 )
      Ez  (        0.00000        0.00000        2.04744 )
           atom    2  As    Mean Z*:       -2.05625
      Ex  (       -2.05625       -0.00000       -0.00000 )
      Ey  (       -0.00000       -2.05625        0.00000 )
      Ez  (       -0.00000       -0.00000       -2.05625 )

          Effective charges Sum: Mean:       -0.00881
             -0.00881       -0.00000       -0.00000
             -0.00000       -0.00881        0.00000
             -0.00000        0.00000       -0.00881

          Effective charges (d Force / dE) in cartesian axis with asr applied: 
           atom    1  Ga    Mean Z*:        2.05185
      E*x (        2.05185        0.00000        0.00000 )
      E*y (        0.00000        2.05185        0.00000 )
      E*z (        0.00000        0.00000        2.05185 )
           atom    2  As    Mean Z*:       -2.05185
      E*x (       -2.05185       -0.00000       -0.00000 )
      E*y (       -0.00000       -2.05185       -0.00000 )
      E*z (       -0.00000       -0.00000       -2.05185 )


     Representation #   1 modes #   1   2   3

     Self-consistent Calculation

      iter #   1 total cpu time :   161.5 secs   av.it.:  10.3
      thresh= 1.000E-02 alpha_mix =  0.700 |ddv_scf|^2 =  1.611E-06

      iter #   2 total cpu time :   182.5 secs   av.it.:  17.3
      thresh= 1.269E-04 alpha_mix =  0.700 |ddv_scf|^2 =  4.047E-07

      iter #   3 total cpu time :   206.9 secs   av.it.:  17.0
      thresh= 6.362E-05 alpha_mix =  0.700 |ddv_scf|^2 =  2.721E-10

      iter #   4 total cpu time :   230.8 secs   av.it.:  17.1
      thresh= 1.650E-06 alpha_mix =  0.700 |ddv_scf|^2 =  3.486E-11

      iter #   5 total cpu time :   252.9 secs   av.it.:  17.0
      thresh= 5.904E-07 alpha_mix =  0.700 |ddv_scf|^2 =  2.723E-13

      iter #   6 total cpu time :   269.9 secs   av.it.:  16.9
      thresh= 5.218E-08 alpha_mix =  0.700 |ddv_scf|^2 =  5.935E-15

     End of self-consistent calculation

     Convergence has been achieved 


     Representation #   2 modes #   4   5   6

     Self-consistent Calculation

      iter #   1 total cpu time :   292.9 secs   av.it.:  10.0
      thresh= 1.000E-02 alpha_mix =  0.700 |ddv_scf|^2 =  1.143E-06

      iter #   2 total cpu time :   315.4 secs   av.it.:  17.3
      thresh= 1.069E-04 alpha_mix =  0.700 |ddv_scf|^2 =  3.057E-07

      iter #   3 total cpu time :   338.6 secs   av.it.:  16.8
      thresh= 5.529E-05 alpha_mix =  0.700 |ddv_scf|^2 =  2.242E-10

      iter #   4 total cpu time :   362.4 secs   av.it.:  17.7
      thresh= 1.497E-06 alpha_mix =  0.700 |ddv_scf|^2 =  1.578E-11

      iter #   5 total cpu time :   385.5 secs   av.it.:  17.0
      thresh= 3.972E-07 alpha_mix =  0.700 |ddv_scf|^2 =  9.981E-13

      iter #   6 total cpu time :   401.2 secs   av.it.:  17.3
      thresh= 9.990E-08 alpha_mix =  0.700 |ddv_scf|^2 =  1.987E-15

     End of self-consistent calculation

     Convergence has been achieved 

     Number of q in the star =    1
     List of q in the star:
          1   0.000000000   0.000000000   0.000000000

          Dielectric constant in cartesian axis 

          (      13.973429370       0.000000000       0.000000000 )
          (       0.000000000      13.973429370       0.000000000 )
          (       0.000000000       0.000000000      13.973429370 )

          Effective charges (d Force / dE) in cartesian axis without acoustic sum rule applied (asr)

           atom    1  Ga    Mean Z*:        2.04744
      Ex  (        2.04744       -0.00000       -0.00000 )
      Ey  (       -0.00000        2.04744        0.00000 )
      Ez  (        0.00000        0.00000        2.04744 )
           atom    2  As    Mean Z*:       -2.05625
      Ex  (       -2.05625       -0.00000       -0.00000 )
      Ey  (       -0.00000       -2.05625        0.00000 )
      Ez  (       -0.00000       -0.00000       -2.05625 )

          Effective charges Sum: Mean:       -0.00881
             -0.00881       -0.00000       -0.00000
             -0.00000       -0.00881        0.00000
             -0.00000        0.00000       -0.00881

          Effective charges (d Force / dE) in cartesian axis with asr applied: 
           atom    1  Ga    Mean Z*:        2.05185
      E*x (        2.05185        0.00000        0.00000 )
      E*y (        0.00000        2.05185        0.00000 )
      E*z (        0.00000        0.00000        2.05185 )
           atom    2  As    Mean Z*:       -2.05185
      E*x (       -2.05185       -0.00000       -0.00000 )
      E*y (       -0.00000       -2.05185       -0.00000 )
      E*z (       -0.00000       -0.00000       -2.05185 )

     Diagonalizing the dynamical matrix

     q = (    0.000000000   0.000000000   0.000000000 ) 

 **************************************************************************
     freq (    1) =       0.938852 [THz] =      31.316740 [cm-1]
     freq (    2) =       0.938852 [THz] =      31.316740 [cm-1]
     freq (    3) =       0.938852 [THz] =      31.316740 [cm-1]
     freq (    4) =       8.089040 [THz] =     269.821328 [cm-1]
     freq (    5) =       8.089040 [THz] =     269.821328 [cm-1]
     freq (    6) =       8.089040 [THz] =     269.821328 [cm-1]
 **************************************************************************

     Mode symmetry, T_d (-43m)  point group:

     freq (   1-   3) =         31.3  [cm-1]   --> T_2  G_15 P_4   I+R
     freq (   4-   6) =        269.8  [cm-1]   --> T_2  G_15 P_4   I+R

     PHONON       :   3m36.62s CPU   7m54.40s WALL

     INITIALIZATION: 
     phq_setup    :      0.32s CPU      0.35s WALL (       1 calls)
     phq_init     :      0.39s CPU      0.43s WALL (       1 calls)

     phq_init     :      0.39s CPU      0.43s WALL (       1 calls)
     set_drhoc    :      0.04s CPU      0.04s WALL (       3 calls)
     init_vloc    :      0.01s CPU      0.01s WALL (       1 calls)
     init_us_1    :      0.00s CPU      0.00s WALL (       1 calls)
     init_us_2    :      0.14s CPU      0.15s WALL (    1372 calls)

     DIELECTRIC CONSTANT AND EFFECTIVE CHARGES:
     solve_e      :     77.03s CPU    132.42s WALL (       1 calls)
     dielec       :      0.02s CPU      0.11s WALL (       1 calls)
     zstar_eu     :      1.45s CPU      1.70s WALL (       1 calls)

     DYNAMICAL MATRIX:
     dynmat0      :      0.17s CPU      0.21s WALL (       1 calls)
     dynmat_us    :      0.17s CPU      0.18s WALL (       1 calls)
     d2ionq       :      0.00s CPU      0.00s WALL (       1 calls)
     dynmatcc     :      0.00s CPU      0.01s WALL (       1 calls)
     phqscf       :    134.79s CPU    261.99s WALL (       1 calls)
     dynmatrix    :      0.03s CPU      0.04s WALL (       1 calls)

     phqscf       :    134.79s CPU    261.99s WALL (       1 calls)
     solve_linter :    133.95s CPU    253.04s WALL (       2 calls)
     dfpt_kernel  :    192.41s CPU    364.47s WALL (       3 calls)
     sth_kernel   :    177.02s CPU    184.35s WALL (      18 calls)
     h_prec       :      0.08s CPU      0.09s WALL (    1029 calls)
     apply_dpot_b :      5.33s CPU      5.75s WALL (    2205 calls)
     ortho        :      0.68s CPU      0.72s WALL (    2793 calls)
     cgsolve      :    162.74s CPU    169.67s WALL (    2793 calls)
     incdrhoscf   :      6.16s CPU      6.59s WALL (    2646 calls)
                                        0.00s GPU  (    2646 calls)
     dv_of_drho   :      0.78s CPU      0.81s WALL (      54 calls)
     mix_pot      :      0.09s CPU     86.22s WALL (      18 calls)
     drhodv       :      0.82s CPU      0.91s WALL (       2 calls)
     psymdvscf    :      7.79s CPU      9.68s WALL (      36 calls)
     com_dvloc    :      0.56s CPU      0.70s WALL (     600 calls)
                                        0.00s GPU  (     600 calls)
     addcore      :      0.23s CPU      0.34s WALL (     342 calls)
                                        0.00s GPU  (     342 calls)

     dvqpsi_us    :      2.81s CPU      3.16s WALL (     588 calls)
                                        0.00s GPU  (     588 calls)
     dvqpsi_us_on :      0.55s CPU      0.57s WALL (     588 calls)

     add_vuspsi   :     13.19s CPU     13.62s WALL (   64415 calls)


      General routines
     calbec       :     16.35s CPU     17.09s WALL (   66228 calls)
     fft          :      2.17s CPU      2.42s WALL (     913 calls)
     ffts         :      0.60s CPU      0.70s WALL (     709 calls)
     fftw         :    118.01s CPU    123.90s WALL ( 1546492 calls)
     davcio       :      0.24s CPU      2.06s WALL (   11139 calls)
     write_rec    :      0.22s CPU     84.65s WALL (      20 calls)

      Additional routines
     ch_psi       :    157.95s CPU    164.71s WALL (   64415 calls)
     last         :     13.40s CPU     13.81s WALL (   64415 calls)
     Hesh         :      0.31s CPU      0.33s WALL (   64415 calls)
     ch_psi_all_k :     12.88s CPU     13.27s WALL (   64415 calls)
                                        0.00s GPU  (   64415 calls)
     h_psi_bgrp   :    143.80s CPU    150.13s WALL (   64415 calls)
     h_psi        :    143.67s CPU    150.00s WALL (   64415 calls)
     h_psi:pot    :    143.36s CPU    149.67s WALL (   64415 calls)
     h_psi:calbec :     15.38s CPU     16.01s WALL (   64415 calls)
     s_psi_bgrp   :      0.38s CPU      0.38s WALL (  131623 calls)


     PHONON       :   3m36.62s CPU   7m54.40s WALL


   This run was terminated on:  12:14: 0  25Feb2026            

=------------------------------------------------------------------------------=
   JOB DONE.
=------------------------------------------------------------------------------=
