
     Program PWSCF v.7.5 starts on 27Jan2026 at 15:46:34 

     This program is part of the open-source Quantum ESPRESSO suite
     for quantum simulation of materials; please cite
         "P. Giannozzi et al., J. Phys.:Condens. Matter 21 395502 (2009);
         "P. Giannozzi et al., J. Phys.:Condens. Matter 29 465901 (2017);
         "P. Giannozzi et al., J. Chem. Phys. 152 154105 (2020);
          URL http://www.quantum-espresso.org", 
     in publications or presentations arising from this work. More details at
     http://www.quantum-espresso.org/quote

     Parallel version (MPI), running on     4 processors

     MPI processes distributed on     1 nodes
     23189 MiB available memory on the printing compute node when the environment starts

     Waiting for input...
     Reading input from standard input

     Current dimensions of program PWSCF are:
     Max number of different atomic species (ntypx) = 10
     Max number of k-points (npk) =  40000
     Max angular momentum in pseudopotentials (lmaxx) =  4
     file Ga.pbe-dn-kjpaw_psl.1.0.0.UPF: wavefunction(s)  4S renormalized

     R & G space division:  proc/nbgrp/npool/nimage =       4
     Subspace diagonalization in iterative solution of the eigenvalue problem:
     a serial algorithm will be used


     Parallelization info
     --------------------
     sticks:   dense  smooth     PW     G-vecs:    dense   smooth      PW
     Min         250     211     63                10432     7938    1275
     Max         251     212     64                10439     7940    1278
     Sum        1003     847    253                41745    31755    5107

     Using Slab Decomposition



     bravais-lattice index     =            4
     lattice parameter (alat)  =       6.0263  a.u.
     unit-cell volume          =     308.1662 (a.u.)^3
     number of atoms/cell      =            4
     number of atomic types    =            2
     number of electrons       =        36.00
     number of Kohn-Sham states=           18
     kinetic-energy cutoff     =      83.3333  Ry
     charge density cutoff     =     400.0000  Ry
     scf convergence threshold =      1.0E-06
     mixing beta               =       0.7000
     number of iterations used =            8  plain     mixing
     Exchange-correlation= PBE
                           (   1   4   3   4   0   0   0)

     celldm(1)=   6.026337  celldm(2)=   0.000000  celldm(3)=   1.625902
     celldm(4)=   0.000000  celldm(5)=   0.000000  celldm(6)=   0.000000

     crystal axes: (cart. coord. in units of alat)
               a(1) = (   1.000000   0.000000   0.000000 )  
               a(2) = (  -0.500000   0.866025   0.000000 )  
               a(3) = (   0.000000   0.000000   1.625902 )  

     reciprocal axes: (cart. coord. in units 2 pi/alat)
               b(1) = (  1.000000  0.577350 -0.000000 )  
               b(2) = (  0.000000  1.154701  0.000000 )  
               b(3) = (  0.000000 -0.000000  0.615043 )  


     PseudoPot. # 1 for Ga read from file:
     /home/nico-sachs/source/q-e/SSSP_1.3.0_PBE_efficiency/Ga.pbe-dn-kjpaw_psl.1.0.0.UPF
     MD5 check sum: a27b4342b1af7e5f338de752e9ed7044
     Pseudo is Projector augmented-wave + core cor, Zval = 13.0
     Generated using "atomic" code by A. Dal Corso  v.5.1
     Shape of augmentation charge: PSQ
     Using radial grid of 1205 points,  6 beta functions with: 
                l(1) =   0
                l(2) =   0
                l(3) =   1
                l(4) =   1
                l(5) =   2
                l(6) =   2
     Q(r) pseudized with 0 coefficients 


     PseudoPot. # 2 for N  read from file:
     /home/nico-sachs/source/q-e/SSSP_1.3.0_PBE_efficiency/N.pbe-n-radius_5.UPF
     MD5 check sum: 16739722b17309cd8fe442a2ace49922
     Pseudo is Ultrasoft + core correction, Zval =  5.0
     Generated using "atomic" code by A. Dal Corso  v.5.1
     Using radial grid of 1085 points,  4 beta functions with: 
                l(1) =   0
                l(2) =   0
                l(3) =   1
                l(4) =   1
     Q(r) pseudized with 0 coefficients 


     atomic species   valence    mass     pseudopotential
     Ga               13.00    69.72300     Ga( 1.00)
     N                 5.00    14.00700     N ( 1.00)

     12 Sym. Ops. (no inversion) found ( 6 have fractional translation)



   Cartesian axes

     site n.     atom                  positions (alat units)
         1        Ga     tau(   1) = (  -0.0000000   0.5773503   0.0000000  )
         2        Ga     tau(   2) = (   0.5000000   0.2886751   0.8129508  )
         3        N      tau(   3) = (  -0.0000000   0.5773503   0.6097131  )
         4        N      tau(   4) = (   0.5000000   0.2886751   1.4226638  )

     number of k points=    21
                       cart. coord. in units 2pi/alat
        k(    1) = (   0.0000000   0.0000000   0.0000000), wk =   0.0138889
        k(    2) = (   0.0000000   0.0000000   0.1537608), wk =   0.0277778
        k(    3) = (   0.0000000   0.0000000  -0.3075217), wk =   0.0138889
        k(    4) = (   0.0000000   0.1924501   0.0000000), wk =   0.0833333
        k(    5) = (   0.0000000   0.1924501   0.1537608), wk =   0.1666667
        k(    6) = (   0.0000000   0.1924501  -0.3075217), wk =   0.0833333
        k(    7) = (   0.0000000   0.3849002   0.0000000), wk =   0.0833333
        k(    8) = (   0.0000000   0.3849002   0.1537608), wk =   0.1666667
        k(    9) = (   0.0000000   0.3849002  -0.3075217), wk =   0.0833333
        k(   10) = (   0.0000000  -0.5773503   0.0000000), wk =   0.0416667
        k(   11) = (   0.0000000  -0.5773503   0.1537608), wk =   0.0833333
        k(   12) = (   0.0000000  -0.5773503  -0.3075217), wk =   0.0416667
        k(   13) = (   0.1666667   0.2886751   0.0000000), wk =   0.0833333
        k(   14) = (   0.1666667   0.2886751   0.1537608), wk =   0.1666667
        k(   15) = (   0.1666667   0.2886751  -0.3075217), wk =   0.0833333
        k(   16) = (   0.1666667   0.4811252   0.0000000), wk =   0.1666667
        k(   17) = (   0.1666667   0.4811252   0.1537608), wk =   0.3333333
        k(   18) = (   0.1666667   0.4811252  -0.3075217), wk =   0.1666667
        k(   19) = (   0.3333333   0.5773503   0.0000000), wk =   0.0277778
        k(   20) = (   0.3333333   0.5773503   0.1537608), wk =   0.0555556
        k(   21) = (   0.3333333   0.5773503  -0.3075217), wk =   0.0277778

     Dense  grid:    41745 G-vectors     FFT dimensions: (  40,  40,  64)

     Smooth grid:    31755 G-vectors     FFT dimensions: (  36,  36,  60)

     Estimated max dynamical RAM per process >      48.39 MB

     Estimated total dynamical RAM >     193.54 MB

     Initial potential from superposition of free atoms

     starting charge      35.9941, renormalised to      36.0000
     Starting wfcs are   26 randomized atomic wfcs
     Checking if some PAW data can be deallocated... 

     total cpu time spent up to now is        1.7 secs

     Self-consistent Calculation

     iteration #  1     ecut=    83.33 Ry     beta= 0.70
     CG style diagonalization
     ethr =  1.00E-02,  avg # of iterations =  2.0

     total cpu time spent up to now is        3.2 secs

     total energy              =    -595.57925808 Ry
     estimated scf accuracy    <       1.11475988 Ry

     iteration #  2     ecut=    83.33 Ry     beta= 0.70
     CG style diagonalization
     ethr =  3.10E-03,  avg # of iterations =  4.9

     total cpu time spent up to now is        5.8 secs

     total energy              =    -596.03275298 Ry
     estimated scf accuracy    <       1.07752882 Ry

     iteration #  3     ecut=    83.33 Ry     beta= 0.70
     CG style diagonalization
     ethr =  2.99E-03,  avg # of iterations =  3.8

     total cpu time spent up to now is        8.0 secs

     total energy              =    -596.21441946 Ry
     estimated scf accuracy    <       0.00933056 Ry

     iteration #  4     ecut=    83.33 Ry     beta= 0.70
     CG style diagonalization
     c_bands:  1 eigenvalues not converged
     c_bands:  1 eigenvalues not converged
     c_bands:  1 eigenvalues not converged
     c_bands:  1 eigenvalues not converged
     c_bands:  1 eigenvalues not converged
     c_bands:  1 eigenvalues not converged
     c_bands:  1 eigenvalues not converged
     c_bands:  1 eigenvalues not converged
     c_bands:  2 eigenvalues not converged
     c_bands:  1 eigenvalues not converged
     c_bands:  1 eigenvalues not converged
     c_bands:  1 eigenvalues not converged
     c_bands:  1 eigenvalues not converged
     ethr =  2.59E-05,  avg # of iterations =  9.8

     total cpu time spent up to now is       13.2 secs

     total energy              =    -596.35561546 Ry
     estimated scf accuracy    <       0.03333061 Ry

     iteration #  5     ecut=    83.33 Ry     beta= 0.70
     CG style diagonalization
     ethr =  2.59E-05,  avg # of iterations =  4.1

     total cpu time spent up to now is       15.5 secs

     total energy              =    -596.36537280 Ry
     estimated scf accuracy    <       0.05011113 Ry

     iteration #  6     ecut=    83.33 Ry     beta= 0.70
     CG style diagonalization
     ethr =  2.59E-05,  avg # of iterations =  5.1

     total cpu time spent up to now is       18.6 secs

     total energy              =    -596.36773801 Ry
     estimated scf accuracy    <       0.07094362 Ry

     iteration #  7     ecut=    83.33 Ry     beta= 0.70
     CG style diagonalization
     ethr =  2.59E-05,  avg # of iterations =  3.9

     total cpu time spent up to now is       20.8 secs

     total energy              =    -596.36890852 Ry
     estimated scf accuracy    <       0.02750287 Ry

     iteration #  8     ecut=    83.33 Ry     beta= 0.70
     CG style diagonalization
     ethr =  2.59E-05,  avg # of iterations =  3.1

     total cpu time spent up to now is       22.7 secs

     total energy              =    -596.36893465 Ry
     estimated scf accuracy    <       0.01631670 Ry

     iteration #  9     ecut=    83.33 Ry     beta= 0.70
     CG style diagonalization
     ethr =  2.59E-05,  avg # of iterations =  3.0

     total cpu time spent up to now is       24.5 secs

     total energy              =    -596.36771108 Ry
     estimated scf accuracy    <       0.01251140 Ry

     iteration # 10     ecut=    83.33 Ry     beta= 0.70
     CG style diagonalization
     ethr =  2.59E-05,  avg # of iterations =  3.0

     total cpu time spent up to now is       26.4 secs

     total energy              =    -596.36796523 Ry
     estimated scf accuracy    <       0.00116577 Ry

     iteration # 11     ecut=    83.33 Ry     beta= 0.70
     CG style diagonalization
     ethr =  3.24E-06,  avg # of iterations =  4.3

     total cpu time spent up to now is       29.2 secs

     total energy              =    -596.36872338 Ry
     estimated scf accuracy    <       0.00006869 Ry

     iteration # 12     ecut=    83.33 Ry     beta= 0.70
     CG style diagonalization
     c_bands:  1 eigenvalues not converged
     c_bands:  1 eigenvalues not converged
     c_bands:  1 eigenvalues not converged
     c_bands:  2 eigenvalues not converged
     c_bands:  1 eigenvalues not converged
     ethr =  1.91E-07,  avg # of iterations =  8.7

     total cpu time spent up to now is       34.6 secs

     total energy              =    -596.36926127 Ry
     estimated scf accuracy    <       0.00042526 Ry

     iteration # 13     ecut=    83.33 Ry     beta= 0.70
     CG style diagonalization
     ethr =  1.91E-07,  avg # of iterations =  4.4

     total cpu time spent up to now is       37.4 secs

     total energy              =    -596.36934467 Ry
     estimated scf accuracy    <       0.00082599 Ry

     iteration # 14     ecut=    83.33 Ry     beta= 0.70
     CG style diagonalization
     ethr =  1.91E-07,  avg # of iterations =  3.6

     total cpu time spent up to now is       39.8 secs

     total energy              =    -596.36938581 Ry
     estimated scf accuracy    <       0.00107241 Ry

     iteration # 15     ecut=    83.33 Ry     beta= 0.70
     CG style diagonalization
     ethr =  1.91E-07,  avg # of iterations =  3.4

     total cpu time spent up to now is       42.1 secs

     total energy              =    -596.36940448 Ry
     estimated scf accuracy    <       0.00131469 Ry

     iteration # 16     ecut=    83.33 Ry     beta= 0.70
     CG style diagonalization
     ethr =  1.91E-07,  avg # of iterations =  3.2

     total cpu time spent up to now is       44.3 secs

     total energy              =    -596.36940374 Ry
     estimated scf accuracy    <       0.00142483 Ry

     iteration # 17     ecut=    83.33 Ry     beta= 0.70
     CG style diagonalization
     ethr =  1.91E-07,  avg # of iterations =  3.1

     total cpu time spent up to now is       46.4 secs

     total energy              =    -596.36938674 Ry
     estimated scf accuracy    <       0.00139278 Ry

     iteration # 18     ecut=    83.33 Ry     beta= 0.70
     CG style diagonalization
     ethr =  1.91E-07,  avg # of iterations =  3.0

     total cpu time spent up to now is       48.5 secs

     total energy              =    -596.36940988 Ry
     estimated scf accuracy    <       0.00131316 Ry

     iteration # 19     ecut=    83.33 Ry     beta= 0.70
     CG style diagonalization
     ethr =  1.91E-07,  avg # of iterations =  3.0

     total cpu time spent up to now is       50.5 secs

     total energy              =    -596.36944981 Ry
     estimated scf accuracy    <       0.00141994 Ry

     iteration # 20     ecut=    83.33 Ry     beta= 0.70
     CG style diagonalization
     ethr =  1.91E-07,  avg # of iterations =  3.0

     total cpu time spent up to now is       52.6 secs

     total energy              =    -596.36905286 Ry
     estimated scf accuracy    <       0.00159890 Ry

     iteration # 21     ecut=    83.33 Ry     beta= 0.70
     CG style diagonalization
     ethr =  1.91E-07,  avg # of iterations =  6.9

     total cpu time spent up to now is       56.8 secs

     total energy              =    -596.36922242 Ry
     estimated scf accuracy    <       0.00025775 Ry

     iteration # 22     ecut=    83.33 Ry     beta= 0.70
     CG style diagonalization
     ethr =  1.91E-07,  avg # of iterations =  5.0

     total cpu time spent up to now is       59.5 secs

     total energy              =    -596.36928075 Ry
     estimated scf accuracy    <       0.00021190 Ry

     iteration # 23     ecut=    83.33 Ry     beta= 0.70
     CG style diagonalization
     ethr =  1.91E-07,  avg # of iterations =  3.4

     total cpu time spent up to now is       61.5 secs

     total energy              =    -596.36929508 Ry
     estimated scf accuracy    <       0.00025885 Ry

     iteration # 24     ecut=    83.33 Ry     beta= 0.70
     CG style diagonalization
     ethr =  1.91E-07,  avg # of iterations =  3.2

     total cpu time spent up to now is       63.4 secs

     total energy              =    -596.36926881 Ry
     estimated scf accuracy    <       0.00028438 Ry

     iteration # 25     ecut=    83.33 Ry     beta= 0.70
     CG style diagonalization
     ethr =  1.91E-07,  avg # of iterations =  3.0

     total cpu time spent up to now is       65.2 secs

     total energy              =    -596.36924812 Ry
     estimated scf accuracy    <       0.00020610 Ry

     iteration # 26     ecut=    83.33 Ry     beta= 0.70
     CG style diagonalization
     ethr =  1.91E-07,  avg # of iterations =  3.0

     total cpu time spent up to now is       67.0 secs

     total energy              =    -596.36924391 Ry
     estimated scf accuracy    <       0.00014487 Ry

     iteration # 27     ecut=    83.33 Ry     beta= 0.70
     CG style diagonalization
     ethr =  1.91E-07,  avg # of iterations =  3.0

     total cpu time spent up to now is       68.7 secs

     total energy              =    -596.36923928 Ry
     estimated scf accuracy    <       0.00012602 Ry

     iteration # 28     ecut=    83.33 Ry     beta= 0.70
     CG style diagonalization
     ethr =  1.91E-07,  avg # of iterations =  3.0

     total cpu time spent up to now is       70.5 secs

     total energy              =    -596.36921102 Ry
     estimated scf accuracy    <       0.00009882 Ry

     iteration # 29     ecut=    83.33 Ry     beta= 0.70
     CG style diagonalization
     ethr =  1.91E-07,  avg # of iterations =  3.0

     total cpu time spent up to now is       72.5 secs

     total energy              =    -596.36920342 Ry
     estimated scf accuracy    <       0.00002430 Ry

     iteration # 30     ecut=    83.33 Ry     beta= 0.70
     CG style diagonalization
     ethr =  6.75E-08,  avg # of iterations =  5.2

     total cpu time spent up to now is       75.8 secs

     total energy              =    -596.36921954 Ry
     estimated scf accuracy    <       0.00001827 Ry

     iteration # 31     ecut=    83.33 Ry     beta= 0.70
     CG style diagonalization
     ethr =  5.07E-08,  avg # of iterations =  3.4

     total cpu time spent up to now is       78.3 secs

     total energy              =    -596.36921738 Ry
     estimated scf accuracy    <       0.00001504 Ry

     iteration # 32     ecut=    83.33 Ry     beta= 0.70
     CG style diagonalization
     ethr =  4.18E-08,  avg # of iterations =  3.1

     total cpu time spent up to now is       80.4 secs

     total energy              =    -596.36921583 Ry
     estimated scf accuracy    <       0.00000444 Ry

     iteration # 33     ecut=    83.33 Ry     beta= 0.70
     CG style diagonalization
     ethr =  1.23E-08,  avg # of iterations =  4.7

     total cpu time spent up to now is       83.4 secs

     End of self-consistent calculation

          k = 0.0000 0.0000 0.0000 (  3995 PWs)   bands (ev):

    -6.2590  -5.3512  -3.7606  -3.7397  -3.7397  -3.6778  -3.6778  -3.4918
    -3.4918  -3.3925  -3.3925  -2.1362   2.6383   8.6786   8.6786   9.6639
     9.7262   9.7262

          k = 0.0000 0.0000 0.1538 (  3952 PWs)   bands (ev):

    -6.0835  -5.4236  -3.7360  -3.7360  -3.7035  -3.6918  -3.6918  -3.4723
    -3.4723  -3.4025  -3.4025  -2.6881   3.6928   8.1708   8.8253   8.8253
     9.5661   9.5661

          k = 0.0000 0.0000-0.3075 (  3928 PWs)   bands (ev):

    -5.6979  -5.6979  -3.7188  -3.7188  -3.7188  -3.7188  -3.4329  -3.4329
    -3.4329  -3.4329  -3.4068  -3.4068   5.8630   5.8630   9.1888   9.1888
     9.1888   9.1888

          k = 0.0000 0.1925 0.0000 (  3959 PWs)   bands (ev):

    -6.0076  -5.2931  -3.7277  -3.7060  -3.6632  -3.6281  -3.6273  -3.5129
    -3.4905  -3.4287  -3.3870  -1.9516   3.0226   7.0024   8.0052   8.1717
     9.3767   9.4894

          k = 0.0000 0.1925 0.1538 (  3957 PWs)   bands (ev):

    -5.8569  -5.3423  -3.7183  -3.6982  -3.6694  -3.6423  -3.6037  -3.4755
    -3.4724  -3.4293  -3.3994  -2.4648   3.9346   7.1185   7.4488   8.3485
     9.0112   9.2777

          k = 0.0000 0.1925-0.3075 (  3946 PWs)   bands (ev):

    -5.5444  -5.5444  -3.6936  -3.6936  -3.6738  -3.6738  -3.5166  -3.5166
    -3.4331  -3.4331  -3.1672  -3.1672   5.6989   5.6989   8.0829   8.0829
     8.7958   8.7958

          k = 0.0000 0.3849 0.0000 (  3953 PWs)   bands (ev):

    -5.5476  -5.2150  -3.6903  -3.6712  -3.5933  -3.5302  -3.5283  -3.4945
    -3.4458  -3.3760  -3.0741  -1.5893   3.7560   4.8347   5.8328   7.3412
     8.4335   8.9910

          k = 0.0000 0.3849 0.1538 (  3966 PWs)   bands (ev):

    -5.4629  -5.2283  -3.6979  -3.6492  -3.6253  -3.5467  -3.5297  -3.4778
    -3.4386  -3.3900  -2.9575  -1.9450   3.7677   5.0291   6.0363   7.5542
     8.5355   8.7133

          k = 0.0000 0.3849-0.3075 (  3978 PWs)   bands (ev):

    -5.3082  -5.3082  -3.6817  -3.6817  -3.5964  -3.5964  -3.4958  -3.4958
    -3.4174  -3.4174  -2.5633  -2.5633   4.2519   4.2519   7.6317   7.6317
     8.1024   8.1024

          k = 0.0000-0.5774 0.0000 (  3984 PWs)   bands (ev):

    -5.3688  -5.1940  -3.6935  -3.6694  -3.5753  -3.5318  -3.4840  -3.4777
    -3.4021  -3.3672  -2.2522  -1.7125   3.2792   4.4585   5.4917   6.9796
     7.4894   8.7473

          k = 0.0000-0.5774 0.1538 (  3958 PWs)   bands (ev):

    -5.3178  -5.1942  -3.7060  -3.6405  -3.6178  -3.5348  -3.5059  -3.4374
    -3.4007  -3.3796  -2.1966  -1.8078   3.0116   3.8638   6.4147   7.2056
     8.0181   8.4458

          k = 0.0000-0.5774-0.3075 (  3960 PWs)   bands (ev):

    -5.2297  -5.2297  -3.6955  -3.6955  -3.5706  -3.5706  -3.4614  -3.4614
    -3.3947  -3.3947  -2.0252  -2.0252   3.1285   3.1285   7.7893   7.7893
     7.8155   7.8155

          k = 0.1667 0.2887 0.0000 (  3961 PWs)   bands (ev):

    -5.6514  -5.2301  -3.6950  -3.6723  -3.6039  -3.5799  -3.5318  -3.4710
    -3.4601  -3.4141  -3.2540  -1.6569   3.6598   5.6782   6.0556   7.3246
     8.7164   8.8013

          k = 0.1667 0.2887 0.1538 (  3961 PWs)   bands (ev):

    -5.5489  -5.2507  -3.6777  -3.6746  -3.6182  -3.6047  -3.5107  -3.5048
    -3.4374  -3.4213  -3.1465  -2.0763   4.0804   5.7187   6.2990   7.2867
     8.4077   8.7910

          k = 0.1667 0.2887-0.3075 (  3958 PWs)   bands (ev):

    -5.3562  -5.3562  -3.6576  -3.6576  -3.6302  -3.6302  -3.5266  -3.5266
    -3.4226  -3.4226  -2.7522  -2.7522   4.8875   4.8875   7.6061   7.6061
     7.9164   7.9164

          k = 0.1667 0.4811 0.0000 (  3960 PWs)   bands (ev):

    -5.3579  -5.1991  -3.7162  -3.6338  -3.5459  -3.5309  -3.5097  -3.4894
    -3.4277  -3.3937  -2.4156  -1.5041   3.7169   4.6716   5.5238   6.0981
     7.6982   7.9657

          k = 0.1667 0.4811 0.1538 (  3956 PWs)   bands (ev):

    -5.3080  -5.1964  -3.6859  -3.6509  -3.5967  -3.5326  -3.5107  -3.4685
    -3.4202  -3.4102  -2.3215  -1.6759   3.4521   4.2393   5.9657   6.7330
     7.5274   8.2189

          k = 0.1667 0.4811-0.3075 (  3958 PWs)   bands (ev):

    -5.2250  -5.2250  -3.6605  -3.6605  -3.5904  -3.5904  -3.4888  -3.4888
    -3.4127  -3.4127  -2.0395  -2.0395   3.5816   3.5816   6.6759   6.6759
     8.0607   8.0607

          k = 0.3333 0.5774 0.0000 (  3975 PWs)   bands (ev):

    -5.2349  -5.2349  -3.7452  -3.5383  -3.5383  -3.5199  -3.5061  -3.5061
    -3.4592  -3.4119  -1.7178  -1.7178   4.3953   4.3953   4.4460   6.7168
     6.7168   7.0343

          k = 0.3333 0.5774 0.1538 (  3978 PWs)   bands (ev):

    -5.2123  -5.2123  -3.7051  -3.5917  -3.5917  -3.5288  -3.4655  -3.4655
    -3.4636  -3.4478  -1.7121  -1.7121   3.9077   3.9077   4.7443   6.5287
     7.5195   7.5195

          k = 0.3333 0.5774-0.3075 (  3942 PWs)   bands (ev):

    -5.1890  -5.1890  -3.6241  -3.6241  -3.6062  -3.6062  -3.4709  -3.4709
    -3.4464  -3.4464  -1.7062  -1.7062   3.5642   3.5642   5.5442   5.5442
     8.2338   8.2338

     highest occupied level (ev):     9.7262

!    total energy              =    -596.36921779 Ry
     estimated scf accuracy    <       0.00000019 Ry

     The total energy is the sum of the following terms:
     one-electron contribution =    -181.37872999 Ry
     hartree contribution      =     130.14696151 Ry
     xc contribution           =     -87.87941312 Ry
     ewald contribution        =    -233.28276133 Ry
     one-center paw contrib.   =    -223.97527487 Ry

     convergence has been achieved in  33 iterations

     Forces acting on atoms (cartesian axes, Ry/au):

     atom    1 type  1   force =    -0.00000000   -0.00000000   -0.00477402
     atom    2 type  1   force =    -0.00000000   -0.00000000   -0.00477402
     atom    3 type  2   force =    -0.00000000    0.00000000    0.00477402
     atom    4 type  2   force =     0.00000000    0.00000000    0.00477402

     Total force =     0.009548     Total SCF correction =     0.000073


     Computing stress (Cartesian axis) and pressure

          total   stress  (Ry/bohr**3)                   (kbar)     P=       54.71
   0.00033324  -0.00000000  -0.00000000           49.02       -0.00       -0.00
  -0.00000000   0.00033324  -0.00000000           -0.00       49.02       -0.00
  -0.00000000  -0.00000000   0.00044927           -0.00       -0.00       66.09


     Writing all to output data dir /home/nico-sachs/source/q-e/tempdir/gan.save/ :
     XML data file, charge density, pseudopotentials, collected wavefunctions

     init_run     :      1.47s CPU      1.53s WALL (       1 calls)
     electrons    :     79.16s CPU     81.75s WALL (       1 calls)
     forces       :      0.32s CPU      0.32s WALL (       1 calls)
     stress       :      1.24s CPU      1.24s WALL (       1 calls)

     Called by init_run:
     wfcinit      :      0.55s CPU      0.57s WALL (       1 calls)
     potinit      :      0.46s CPU      0.49s WALL (       1 calls)
     hinit0       :      0.34s CPU      0.34s WALL (       1 calls)

     Called by electrons:
     c_bands      :     63.03s CPU     65.38s WALL (      33 calls)
     sum_band     :      6.12s CPU      6.31s WALL (      33 calls)
     v_of_rho     :      0.41s CPU      0.42s WALL (      34 calls)
     newd         :      1.48s CPU      1.50s WALL (      34 calls)
     PAW_pot      :      8.24s CPU      8.27s WALL (      34 calls)
     mix_rho      :      0.10s CPU      0.10s WALL (      33 calls)

     Called by c_bands:
     init_us_2    :      0.63s CPU      0.64s WALL (    1449 calls)
     ccgdiagg     :     51.00s CPU     52.94s WALL (     693 calls)
     wfcrot       :     12.04s CPU     12.44s WALL (     693 calls)

     Called by *cgdiagg:
     h_psi        :     37.88s CPU     39.48s WALL (   38632 calls)
     s_psi        :     10.52s CPU     10.86s WALL (   76571 calls)

     Called by h_psi:
     h_psi:calbec :      8.77s CPU      9.12s WALL (   38632 calls)
     vloc_psi     :     22.57s CPU     23.60s WALL (   38632 calls)
                                        0.00s GPU  (   38632 calls)
     add_vuspsi   :      6.16s CPU      6.36s WALL (   38632 calls)
     hs_1psi      :     34.18s CPU     35.59s WALL (   37939 calls)
     s_1psi       :     11.45s CPU     11.82s WALL (   37939 calls)

     General routines
     calbec       :     17.71s CPU     18.32s WALL (   77621 calls)
     fft          :      0.36s CPU      0.37s WALL (     465 calls)
     ffts         :      0.22s CPU      0.22s WALL (      67 calls)
     fftw         :     22.32s CPU     23.37s WALL (  113636 calls)
     interpolate  :      0.24s CPU      0.24s WALL (      34 calls)

     Parallel routines

     PWSCF        :   1m22.40s CPU   1m25.08s WALL


   This run was terminated on:  15:47:59  27Jan2026            

=------------------------------------------------------------------------------=
   JOB DONE.
=------------------------------------------------------------------------------=
