
     Program PWSCF v.7.5 starts on 27Jan2026 at 14:20:54 

     This program is part of the open-source Quantum ESPRESSO suite
     for quantum simulation of materials; please cite
         "P. Giannozzi et al., J. Phys.:Condens. Matter 21 395502 (2009);
         "P. Giannozzi et al., J. Phys.:Condens. Matter 29 465901 (2017);
         "P. Giannozzi et al., J. Chem. Phys. 152 154105 (2020);
          URL http://www.quantum-espresso.org", 
     in publications or presentations arising from this work. More details at
     http://www.quantum-espresso.org/quote

     Parallel version (MPI), running on     4 processors

     MPI processes distributed on     1 nodes
     24656 MiB available memory on the printing compute node when the environment starts

     Waiting for input...
     Reading input from standard input

     Current dimensions of program PWSCF are:
     Max number of different atomic species (ntypx) = 10
     Max number of k-points (npk) =  40000
     Max angular momentum in pseudopotentials (lmaxx) =  4
     file Ga.pbe-dn-kjpaw_psl.1.0.0.UPF: wavefunction(s)  4S renormalized
     Message from routine set_cutoff:
     ecutrho < 4*ecutwfc, are you sure?

     R & G space division:  proc/nbgrp/npool/nimage =       4
     Subspace diagonalization in iterative solution of the eigenvalue problem:
     a serial algorithm will be used


     Parallelization info
     --------------------
     sticks:   dense  smooth     PW     G-vecs:    dense   smooth      PW
     Min         222     222     63                 8700     8700    1397
     Max         223     223     64                 8705     8705    1406
     Sum         889     889    253                34811    34811    5599

     Using Slab Decomposition



     bravais-lattice index     =            4
     lattice parameter (alat)  =       6.0263  a.u.
     unit-cell volume          =     308.1662 (a.u.)^3
     number of atoms/cell      =            4
     number of atomic types    =            2
     number of electrons       =        36.00
     number of Kohn-Sham states=           18
     kinetic-energy cutoff     =      90.0000  Ry
     charge density cutoff     =     355.5556  Ry
     scf convergence threshold =      1.0E-06
     mixing beta               =       0.7000
     number of iterations used =            8  plain     mixing
     Exchange-correlation= PBE
                           (   1   4   3   4   0   0   0)

     celldm(1)=   6.026337  celldm(2)=   0.000000  celldm(3)=   1.625902
     celldm(4)=   0.000000  celldm(5)=   0.000000  celldm(6)=   0.000000

     crystal axes: (cart. coord. in units of alat)
               a(1) = (   1.000000   0.000000   0.000000 )  
               a(2) = (  -0.500000   0.866025   0.000000 )  
               a(3) = (   0.000000   0.000000   1.625902 )  

     reciprocal axes: (cart. coord. in units 2 pi/alat)
               b(1) = (  1.000000  0.577350 -0.000000 )  
               b(2) = (  0.000000  1.154701  0.000000 )  
               b(3) = (  0.000000 -0.000000  0.615043 )  


     PseudoPot. # 1 for Ga read from file:
     /home/nico-sachs/source/q-e/SSSP_1.3.0_PBE_efficiency/Ga.pbe-dn-kjpaw_psl.1.0.0.UPF
     MD5 check sum: a27b4342b1af7e5f338de752e9ed7044
     Pseudo is Projector augmented-wave + core cor, Zval = 13.0
     Generated using "atomic" code by A. Dal Corso  v.5.1
     Shape of augmentation charge: PSQ
     Using radial grid of 1205 points,  6 beta functions with: 
                l(1) =   0
                l(2) =   0
                l(3) =   1
                l(4) =   1
                l(5) =   2
                l(6) =   2
     Q(r) pseudized with 0 coefficients 


     PseudoPot. # 2 for N  read from file:
     /home/nico-sachs/source/q-e/SSSP_1.3.0_PBE_efficiency/N.pbe-n-radius_5.UPF
     MD5 check sum: 16739722b17309cd8fe442a2ace49922
     Pseudo is Ultrasoft + core correction, Zval =  5.0
     Generated using "atomic" code by A. Dal Corso  v.5.1
     Using radial grid of 1085 points,  4 beta functions with: 
                l(1) =   0
                l(2) =   0
                l(3) =   1
                l(4) =   1
     Q(r) pseudized with 0 coefficients 


     atomic species   valence    mass     pseudopotential
     Ga               13.00    69.72300     Ga( 1.00)
     N                 5.00    14.00700     N ( 1.00)

     12 Sym. Ops. (no inversion) found ( 6 have fractional translation)



   Cartesian axes

     site n.     atom                  positions (alat units)
         1        Ga     tau(   1) = (  -0.0000000   0.5773503   0.0000000  )
         2        Ga     tau(   2) = (   0.5000000   0.2886751   0.8129508  )
         3        N      tau(   3) = (  -0.0000000   0.5773503   0.6097131  )
         4        N      tau(   4) = (   0.5000000   0.2886751   1.4226638  )

     number of k points=    21
                       cart. coord. in units 2pi/alat
        k(    1) = (   0.0000000   0.0000000   0.0000000), wk =   0.0138889
        k(    2) = (   0.0000000   0.0000000   0.1537608), wk =   0.0277778
        k(    3) = (   0.0000000   0.0000000  -0.3075217), wk =   0.0138889
        k(    4) = (   0.0000000   0.1924501   0.0000000), wk =   0.0833333
        k(    5) = (   0.0000000   0.1924501   0.1537608), wk =   0.1666667
        k(    6) = (   0.0000000   0.1924501  -0.3075217), wk =   0.0833333
        k(    7) = (   0.0000000   0.3849002   0.0000000), wk =   0.0833333
        k(    8) = (   0.0000000   0.3849002   0.1537608), wk =   0.1666667
        k(    9) = (   0.0000000   0.3849002  -0.3075217), wk =   0.0833333
        k(   10) = (   0.0000000  -0.5773503   0.0000000), wk =   0.0416667
        k(   11) = (   0.0000000  -0.5773503   0.1537608), wk =   0.0833333
        k(   12) = (   0.0000000  -0.5773503  -0.3075217), wk =   0.0416667
        k(   13) = (   0.1666667   0.2886751   0.0000000), wk =   0.0833333
        k(   14) = (   0.1666667   0.2886751   0.1537608), wk =   0.1666667
        k(   15) = (   0.1666667   0.2886751  -0.3075217), wk =   0.0833333
        k(   16) = (   0.1666667   0.4811252   0.0000000), wk =   0.1666667
        k(   17) = (   0.1666667   0.4811252   0.1537608), wk =   0.3333333
        k(   18) = (   0.1666667   0.4811252  -0.3075217), wk =   0.1666667
        k(   19) = (   0.3333333   0.5773503   0.0000000), wk =   0.0277778
        k(   20) = (   0.3333333   0.5773503   0.1537608), wk =   0.0555556
        k(   21) = (   0.3333333   0.5773503  -0.3075217), wk =   0.0277778

     Dense  grid:    34811 G-vectors     FFT dimensions: (  40,  40,  60)

     Estimated max dynamical RAM per process >      42.84 MB

     Estimated total dynamical RAM >     171.37 MB

     Initial potential from superposition of free atoms

     starting charge      35.9941, renormalised to      36.0000
     Starting wfcs are   26 randomized atomic wfcs
     Checking if some PAW data can be deallocated... 

     total cpu time spent up to now is        1.6 secs

     Self-consistent Calculation

     iteration #  1     ecut=    90.00 Ry     beta= 0.70
     CG style diagonalization
     ethr =  1.00E-02,  avg # of iterations =  2.0

     total cpu time spent up to now is        3.2 secs

     total energy              =    -595.58042809 Ry
     estimated scf accuracy    <       1.11376183 Ry

     iteration #  2     ecut=    90.00 Ry     beta= 0.70
     CG style diagonalization
     ethr =  3.09E-03,  avg # of iterations =  4.8

     total cpu time spent up to now is        6.7 secs

     total energy              =    -596.02825468 Ry
     estimated scf accuracy    <       1.07649710 Ry

     iteration #  3     ecut=    90.00 Ry     beta= 0.70
     CG style diagonalization
     ethr =  2.99E-03,  avg # of iterations =  3.8

     total cpu time spent up to now is        9.6 secs

     total energy              =    -596.21461798 Ry
     estimated scf accuracy    <       0.00934566 Ry

     iteration #  4     ecut=    90.00 Ry     beta= 0.70
     CG style diagonalization
     c_bands:  1 eigenvalues not converged
     c_bands:  1 eigenvalues not converged
     c_bands:  1 eigenvalues not converged
     c_bands:  2 eigenvalues not converged
     c_bands:  1 eigenvalues not converged
     c_bands:  1 eigenvalues not converged
     c_bands:  1 eigenvalues not converged
     c_bands:  1 eigenvalues not converged
     c_bands:  1 eigenvalues not converged
     c_bands:  1 eigenvalues not converged
     c_bands:  1 eigenvalues not converged
     ethr =  2.60E-05,  avg # of iterations =  9.9

     total cpu time spent up to now is       16.7 secs

     total energy              =    -596.35950255 Ry
     estimated scf accuracy    <       0.03316535 Ry

     iteration #  5     ecut=    90.00 Ry     beta= 0.70
     CG style diagonalization
     ethr =  2.60E-05,  avg # of iterations =  4.1

     total cpu time spent up to now is       19.8 secs

     total energy              =    -596.36435656 Ry
     estimated scf accuracy    <       0.05014880 Ry

     iteration #  6     ecut=    90.00 Ry     beta= 0.70
     CG style diagonalization
     ethr =  2.60E-05,  avg # of iterations =  5.1

     total cpu time spent up to now is       23.4 secs

     total energy              =    -596.36704030 Ry
     estimated scf accuracy    <       0.12843919 Ry

     iteration #  7     ecut=    90.00 Ry     beta= 0.70
     CG style diagonalization
     ethr =  2.60E-05,  avg # of iterations =  3.8

     total cpu time spent up to now is       26.3 secs

     total energy              =    -596.36881974 Ry
     estimated scf accuracy    <       0.02423214 Ry

     iteration #  8     ecut=    90.00 Ry     beta= 0.70
     CG style diagonalization
     ethr =  2.60E-05,  avg # of iterations =  3.1

     total cpu time spent up to now is       28.7 secs

     total energy              =    -596.37106321 Ry
     estimated scf accuracy    <       0.02070833 Ry

     iteration #  9     ecut=    90.00 Ry     beta= 0.70
     CG style diagonalization
     ethr =  2.60E-05,  avg # of iterations =  3.0

     total cpu time spent up to now is       30.8 secs

     total energy              =    -596.36697523 Ry
     estimated scf accuracy    <       0.03619708 Ry

     iteration # 10     ecut=    90.00 Ry     beta= 0.70
     CG style diagonalization
     ethr =  2.60E-05,  avg # of iterations =  3.5

     total cpu time spent up to now is       33.1 secs

     total energy              =    -596.36841370 Ry
     estimated scf accuracy    <       0.00026202 Ry

     iteration # 11     ecut=    90.00 Ry     beta= 0.70
     CG style diagonalization
     c_bands:  1 eigenvalues not converged
     c_bands:  1 eigenvalues not converged
     ethr =  7.28E-07,  avg # of iterations =  9.3

     total cpu time spent up to now is       38.8 secs

     total energy              =    -596.36884872 Ry
     estimated scf accuracy    <       0.01121921 Ry

     iteration # 12     ecut=    90.00 Ry     beta= 0.70
     CG style diagonalization
     ethr =  7.28E-07,  avg # of iterations =  5.3

     total cpu time spent up to now is       42.1 secs

     total energy              =    -596.36904079 Ry
     estimated scf accuracy    <       0.00114536 Ry

     iteration # 13     ecut=    90.00 Ry     beta= 0.70
     CG style diagonalization
     ethr =  7.28E-07,  avg # of iterations =  5.5

     total cpu time spent up to now is       45.8 secs

     total energy              =    -596.36935032 Ry
     estimated scf accuracy    <       0.00064768 Ry

     iteration # 14     ecut=    90.00 Ry     beta= 0.70
     CG style diagonalization
     ethr =  7.28E-07,  avg # of iterations =  4.6

     total cpu time spent up to now is       49.2 secs

     total energy              =    -596.36938354 Ry
     estimated scf accuracy    <       0.00060572 Ry

     iteration # 15     ecut=    90.00 Ry     beta= 0.70
     CG style diagonalization
     ethr =  7.28E-07,  avg # of iterations =  3.3

     total cpu time spent up to now is       51.9 secs

     total energy              =    -596.36925663 Ry
     estimated scf accuracy    <       0.00039701 Ry

     iteration # 16     ecut=    90.00 Ry     beta= 0.70
     CG style diagonalization
     ethr =  7.28E-07,  avg # of iterations =  4.2

     total cpu time spent up to now is       55.0 secs

     total energy              =    -596.36931823 Ry
     estimated scf accuracy    <       0.00004486 Ry

     iteration # 17     ecut=    90.00 Ry     beta= 0.70
     CG style diagonalization
     ethr =  1.25E-07,  avg # of iterations =  5.6

     total cpu time spent up to now is       59.0 secs

     total energy              =    -596.36936325 Ry
     estimated scf accuracy    <       0.00001501 Ry

     iteration # 18     ecut=    90.00 Ry     beta= 0.70
     CG style diagonalization
     ethr =  4.17E-08,  avg # of iterations =  5.2

     total cpu time spent up to now is       62.8 secs

     total energy              =    -596.36938743 Ry
     estimated scf accuracy    <       0.00001612 Ry

     iteration # 19     ecut=    90.00 Ry     beta= 0.70
     CG style diagonalization
     ethr =  4.17E-08,  avg # of iterations =  4.3

     total cpu time spent up to now is       66.0 secs

     total energy              =    -596.36941878 Ry
     estimated scf accuracy    <       0.00001948 Ry

     iteration # 20     ecut=    90.00 Ry     beta= 0.70
     CG style diagonalization
     ethr =  4.17E-08,  avg # of iterations =  5.4

     total cpu time spent up to now is       69.8 secs

     total energy              =    -596.36937537 Ry
     estimated scf accuracy    <       0.00010898 Ry

     iteration # 21     ecut=    90.00 Ry     beta= 0.70
     CG style diagonalization
     ethr =  4.17E-08,  avg # of iterations =  4.5

     total cpu time spent up to now is       73.1 secs

     total energy              =    -596.36937425 Ry
     estimated scf accuracy    <       0.00002166 Ry

     iteration # 22     ecut=    90.00 Ry     beta= 0.70
     CG style diagonalization
     ethr =  4.17E-08,  avg # of iterations =  3.4

     total cpu time spent up to now is       75.6 secs

     total energy              =    -596.36937373 Ry
     estimated scf accuracy    <       0.00001325 Ry

     iteration # 23     ecut=    90.00 Ry     beta= 0.70
     CG style diagonalization
     ethr =  3.68E-08,  avg # of iterations =  4.3

     total cpu time spent up to now is       78.8 secs

     total energy              =    -596.36937867 Ry
     estimated scf accuracy    <       0.00000268 Ry

     iteration # 24     ecut=    90.00 Ry     beta= 0.70
     CG style diagonalization
     ethr =  7.45E-09,  avg # of iterations =  7.2

     total cpu time spent up to now is       83.9 secs

     total energy              =    -596.36938520 Ry
     estimated scf accuracy    <       0.00000463 Ry

     iteration # 25     ecut=    90.00 Ry     beta= 0.70
     CG style diagonalization
     ethr =  7.45E-09,  avg # of iterations =  4.5

     total cpu time spent up to now is       87.1 secs

     total energy              =    -596.36937991 Ry
     estimated scf accuracy    <       0.00000615 Ry

     iteration # 26     ecut=    90.00 Ry     beta= 0.70
     CG style diagonalization
     ethr =  7.45E-09,  avg # of iterations =  5.1

     total cpu time spent up to now is       90.8 secs

     total energy              =    -596.36938511 Ry
     estimated scf accuracy    <       0.00000395 Ry

     iteration # 27     ecut=    90.00 Ry     beta= 0.70
     CG style diagonalization
     ethr =  7.45E-09,  avg # of iterations =  4.7

     total cpu time spent up to now is       94.1 secs

     total energy              =    -596.36939031 Ry
     estimated scf accuracy    <       0.00001548 Ry

     iteration # 28     ecut=    90.00 Ry     beta= 0.70
     CG style diagonalization
     ethr =  7.45E-09,  avg # of iterations =  5.3

     total cpu time spent up to now is       97.9 secs

     total energy              =    -596.36938839 Ry
     estimated scf accuracy    <       0.00004020 Ry

     iteration # 29     ecut=    90.00 Ry     beta= 0.70
     CG style diagonalization
     ethr =  7.45E-09,  avg # of iterations =  4.0

     total cpu time spent up to now is      100.8 secs

     total energy              =    -596.36938985 Ry
     estimated scf accuracy    <       0.00002827 Ry

     iteration # 30     ecut=    90.00 Ry     beta= 0.70
     CG style diagonalization
     ethr =  7.45E-09,  avg # of iterations =  3.1

     total cpu time spent up to now is      103.2 secs

     total energy              =    -596.36938142 Ry
     estimated scf accuracy    <       0.00003093 Ry

     iteration # 31     ecut=    90.00 Ry     beta= 0.70
     CG style diagonalization
     ethr =  7.45E-09,  avg # of iterations =  4.2

     total cpu time spent up to now is      106.3 secs

     total energy              =    -596.36938077 Ry
     estimated scf accuracy    <       0.00000499 Ry

     iteration # 32     ecut=    90.00 Ry     beta= 0.70
     CG style diagonalization
     ethr =  7.45E-09,  avg # of iterations =  3.7

     total cpu time spent up to now is      109.0 secs

     End of self-consistent calculation

          k = 0.0000 0.0000 0.0000 (  4427 PWs)   bands (ev):

    -6.2584  -5.3540  -3.7693  -3.7483  -3.7483  -3.6864  -3.6864  -3.5009
    -3.5009  -3.4017  -3.4017  -2.1417   2.6385   8.6789   8.6789   9.6640
     9.7263   9.7263

          k = 0.0000 0.0000 0.1538 (  4422 PWs)   bands (ev):

    -6.0831  -5.4258  -3.7446  -3.7446  -3.7120  -3.7004  -3.7004  -3.4814
    -3.4814  -3.4116  -3.4116  -2.6940   3.6927   8.1708   8.8256   8.8256
     9.5662   9.5662

          k = 0.0000 0.0000-0.3075 (  4386 PWs)   bands (ev):

    -5.6984  -5.6984  -3.7275  -3.7275  -3.7275  -3.7275  -3.4420  -3.4420
    -3.4420  -3.4420  -3.4143  -3.4143   5.8629   5.8629   9.1891   9.1891
     9.1891   9.1891

          k = 0.0000 0.1925 0.0000 (  4448 PWs)   bands (ev):

    -6.0073  -5.2962  -3.7364  -3.7147  -3.6717  -3.6366  -3.6360  -3.5219
    -3.4995  -3.4378  -3.3962  -1.9568   3.0228   7.0025   8.0051   8.1720
     9.3769   9.4896

          k = 0.0000 0.1925 0.1538 (  4432 PWs)   bands (ev):

    -5.8569  -5.3449  -3.7270  -3.7069  -3.6781  -3.6510  -3.6120  -3.4844
    -3.4814  -3.4381  -3.4086  -2.4704   3.9345   7.1184   7.4488   8.3488
     9.0114   9.2779

          k = 0.0000 0.1925-0.3075 (  4420 PWs)   bands (ev):

    -5.5455  -5.5455  -3.7023  -3.7023  -3.6824  -3.6824  -3.5253  -3.5253
    -3.4422  -3.4422  -3.1745  -3.1745   5.6987   5.6987   8.0830   8.0830
     8.7961   8.7961

          k = 0.0000 0.3849 0.0000 (  4436 PWs)   bands (ev):

    -5.5489  -5.2186  -3.6990  -3.6800  -3.6020  -3.5391  -3.5372  -3.5035
    -3.4548  -3.3852  -3.0809  -1.5940   3.7560   4.8350   5.8326   7.3417
     8.4337   8.9913

          k = 0.0000 0.3849 0.1538 (  4440 PWs)   bands (ev):

    -5.4645  -5.2317  -3.7065  -3.6579  -3.6340  -3.5556  -3.5386  -3.4868
    -3.4477  -3.3991  -2.9639  -1.9498   3.7676   5.0290   6.0365   7.5547
     8.5358   8.7136

          k = 0.0000 0.3849-0.3075 (  4454 PWs)   bands (ev):

    -5.3107  -5.3107  -3.6903  -3.6903  -3.6052  -3.6052  -3.5047  -3.5047
    -3.4265  -3.4265  -2.5689  -2.5689   4.2517   4.2517   7.6319   7.6319
     8.1027   8.1027

          k = 0.0000-0.5774 0.0000 (  4474 PWs)   bands (ev):

    -5.3714  -5.1978  -3.7021  -3.6782  -3.5842  -3.5406  -3.4929  -3.4868
    -3.4111  -3.3763  -2.2579  -1.7168   3.2791   4.4585   5.4920   6.9801
     7.4896   8.7477

          k = 0.0000-0.5774 0.1538 (  4456 PWs)   bands (ev):

    -5.3206  -5.1978  -3.7146  -3.6493  -3.6266  -3.5437  -3.5149  -3.4465
    -3.4098  -3.3887  -2.2021  -1.8123   3.0116   3.8637   6.4150   7.2061
     8.0184   8.4462

          k = 0.0000-0.5774-0.3075 (  4452 PWs)   bands (ev):

    -5.2330  -5.2330  -3.7042  -3.7042  -3.5794  -3.5794  -3.4704  -3.4704
    -3.4038  -3.4038  -2.0302  -2.0302   3.1285   3.1285   7.7898   7.7898
     7.8158   7.8158

          k = 0.1667 0.2887 0.0000 (  4443 PWs)   bands (ev):

    -5.6522  -5.2337  -3.7037  -3.6811  -3.6127  -3.5886  -3.5408  -3.4800
    -3.4691  -3.4230  -3.2616  -1.6617   3.6599   5.6784   6.0555   7.3249
     8.7165   8.8016

          k = 0.1667 0.2887 0.1538 (  4445 PWs)   bands (ev):

    -5.5500  -5.2538  -3.6865  -3.6833  -3.6269  -3.6134  -3.5196  -3.5137
    -3.4464  -3.4303  -3.1536  -2.0813   4.0803   5.7185   6.2992   7.2869
     8.4079   8.7913

          k = 0.1667 0.2887-0.3075 (  4448 PWs)   bands (ev):

    -5.3584  -5.3584  -3.6663  -3.6663  -3.6390  -3.6390  -3.5354  -3.5354
    -3.4317  -3.4317  -2.7583  -2.7583   4.8872   4.8872   7.6063   7.6063
     7.9167   7.9167

          k = 0.1667 0.4811 0.0000 (  4446 PWs)   bands (ev):

    -5.3605  -5.2029  -3.7249  -3.6426  -3.5549  -3.5398  -3.5186  -3.4984
    -3.4367  -3.4028  -2.4212  -1.5086   3.7169   4.6717   5.5240   6.0985
     7.6984   7.9659

          k = 0.1667 0.4811 0.1538 (  4450 PWs)   bands (ev):

    -5.3107  -5.2000  -3.6946  -3.6597  -3.6055  -3.5415  -3.5197  -3.4775
    -3.4292  -3.4193  -2.3269  -1.6805   3.4521   4.2392   5.9660   6.7333
     7.5276   8.2192

          k = 0.1667 0.4811-0.3075 (  4450 PWs)   bands (ev):

    -5.2282  -5.2282  -3.6692  -3.6692  -3.5993  -3.5993  -3.4977  -3.4977
    -3.4218  -3.4218  -2.0445  -2.0445   3.5814   3.5814   6.6761   6.6761
     8.0611   8.0611

          k = 0.3333 0.5774 0.0000 (  4449 PWs)   bands (ev):

    -5.2383  -5.2383  -3.7538  -3.5471  -3.5471  -3.5288  -3.5151  -3.5151
    -3.4681  -3.4210  -1.7226  -1.7226   4.3953   4.3953   4.4465   6.7170
     6.7170   7.0345

          k = 0.3333 0.5774 0.1538 (  4449 PWs)   bands (ev):

    -5.2157  -5.2157  -3.7138  -3.6005  -3.6005  -3.5377  -3.4746  -3.4746
    -3.4726  -3.4568  -1.7169  -1.7169   3.9077   3.9077   4.7447   6.5289
     7.5198   7.5198

          k = 0.3333 0.5774-0.3075 (  4494 PWs)   bands (ev):

    -5.1925  -5.1925  -3.6329  -3.6329  -3.6150  -3.6150  -3.4799  -3.4799
    -3.4555  -3.4555  -1.7111  -1.7111   3.5641   3.5641   5.5444   5.5444
     8.2343   8.2343

     highest occupied level (ev):     9.7263

!    total energy              =    -596.36938131 Ry
     estimated scf accuracy    <       0.00000009 Ry

     The total energy is the sum of the following terms:
     one-electron contribution =    -181.37447655 Ry
     hartree contribution      =     130.13665566 Ry
     xc contribution           =     -87.87709106 Ry
     ewald contribution        =    -233.28276133 Ry
     one-center paw contrib.   =    -223.97170802 Ry

     convergence has been achieved in  32 iterations

     Forces acting on atoms (cartesian axes, Ry/au):

     atom    1 type  1   force =    -0.00000000   -0.00000000   -0.00469997
     atom    2 type  1   force =     0.00000000    0.00000000   -0.00469997
     atom    3 type  2   force =     0.00000000   -0.00000000    0.00469997
     atom    4 type  2   force =    -0.00000000   -0.00000000    0.00469997

     Total force =     0.009400     Total SCF correction =     0.000334


     Computing stress (Cartesian axis) and pressure

          total   stress  (Ry/bohr**3)                   (kbar)     P=       52.81
   0.00032048   0.00000000  -0.00000000           47.14        0.00       -0.00
   0.00000000   0.00032048  -0.00000000            0.00       47.14       -0.00
   0.00000000   0.00000000   0.00043606            0.00        0.00       64.15


     Writing all to output data dir /home/nico-sachs/source/q-e/tempdir/gan.save/ :
     XML data file, charge density, pseudopotentials, collected wavefunctions

     init_run     :      1.33s CPU      1.40s WALL (       1 calls)
     electrons    :    104.32s CPU    107.42s WALL (       1 calls)
     forces       :      0.45s CPU      0.45s WALL (       1 calls)
     stress       :      1.19s CPU      1.20s WALL (       1 calls)

     Called by init_run:
     wfcinit      :      0.65s CPU      0.67s WALL (       1 calls)
     potinit      :      0.23s CPU      0.27s WALL (       1 calls)
     hinit0       :      0.37s CPU      0.37s WALL (       1 calls)

     Called by electrons:
     c_bands      :     87.37s CPU     90.24s WALL (      32 calls)
     sum_band     :      7.05s CPU      7.26s WALL (      32 calls)
     v_of_rho     :      0.38s CPU      0.39s WALL (      33 calls)
     newd         :      1.27s CPU      1.29s WALL (      33 calls)
     PAW_pot      :      8.37s CPU      8.41s WALL (      33 calls)
     mix_rho      :      0.10s CPU      0.10s WALL (      32 calls)

     Called by c_bands:
     init_us_2    :      0.71s CPU      0.73s WALL (    1407 calls)
     ccgdiagg     :     73.34s CPU     75.81s WALL (     672 calls)
     wfcrot       :     14.10s CPU     14.50s WALL (     672 calls)

     Called by *cgdiagg:
     h_psi        :     52.14s CPU     54.14s WALL (   45585 calls)
     s_psi        :     13.86s CPU     14.28s WALL (   90498 calls)

     Called by h_psi:
     h_psi:calbec :     12.06s CPU     12.52s WALL (   45585 calls)
     vloc_psi     :     31.56s CPU     32.81s WALL (   45585 calls)
                                        0.00s GPU  (   45585 calls)
     add_vuspsi   :      8.02s CPU      8.30s WALL (   45585 calls)
     hs_1psi      :     48.68s CPU     50.54s WALL (   44913 calls)
     s_1psi       :     15.91s CPU     16.33s WALL (   44913 calls)

     General routines
     calbec       :     24.29s CPU     25.04s WALL (   91527 calls)
     fft          :      0.38s CPU      0.38s WALL (     388 calls)
     ffts         :      0.01s CPU      0.01s WALL (      32 calls)
     fftw         :     30.50s CPU     31.76s WALL (  126450 calls)

     Parallel routines

     PWSCF        :   1m47.49s CPU   1m50.74s WALL


   This run was terminated on:  14:22:45  27Jan2026            

=------------------------------------------------------------------------------=
   JOB DONE.
=------------------------------------------------------------------------------=
