
     Program PWSCF v.7.5 starts on 27Jan2026 at 14:11:11 

     This program is part of the open-source Quantum ESPRESSO suite
     for quantum simulation of materials; please cite
         "P. Giannozzi et al., J. Phys.:Condens. Matter 21 395502 (2009);
         "P. Giannozzi et al., J. Phys.:Condens. Matter 29 465901 (2017);
         "P. Giannozzi et al., J. Chem. Phys. 152 154105 (2020);
          URL http://www.quantum-espresso.org", 
     in publications or presentations arising from this work. More details at
     http://www.quantum-espresso.org/quote

     Parallel version (MPI), running on     4 processors

     MPI processes distributed on     1 nodes
     23579 MiB available memory on the printing compute node when the environment starts

     Waiting for input...
     Reading input from standard input

     Current dimensions of program PWSCF are:
     Max number of different atomic species (ntypx) = 10
     Max number of k-points (npk) =  40000
     Max angular momentum in pseudopotentials (lmaxx) =  4
     file Ga.pbe-dn-kjpaw_psl.1.0.0.UPF: wavefunction(s)  4S renormalized
     Message from routine set_cutoff:
     ecutrho < 4*ecutwfc, are you sure?

     R & G space division:  proc/nbgrp/npool/nimage =       4
     Subspace diagonalization in iterative solution of the eigenvalue problem:
     a serial algorithm will be used


     Parallelization info
     --------------------
     sticks:   dense  smooth     PW     G-vecs:    dense   smooth      PW
     Min         124     124     63                 3674     3674    1397
     Max         125     125     64                 3681     3681    1406
     Sum         499     499    253                14715    14715    5599

     Using Slab Decomposition



     bravais-lattice index     =            4
     lattice parameter (alat)  =       6.0263  a.u.
     unit-cell volume          =     308.1662 (a.u.)^3
     number of atoms/cell      =            4
     number of atomic types    =            2
     number of electrons       =        36.00
     number of Kohn-Sham states=           18
     kinetic-energy cutoff     =      90.0000  Ry
     charge density cutoff     =     200.0000  Ry
     scf convergence threshold =      1.0E-06
     mixing beta               =       0.7000
     number of iterations used =            8  plain     mixing
     Exchange-correlation= PBE
                           (   1   4   3   4   0   0   0)

     celldm(1)=   6.026337  celldm(2)=   0.000000  celldm(3)=   1.625902
     celldm(4)=   0.000000  celldm(5)=   0.000000  celldm(6)=   0.000000

     crystal axes: (cart. coord. in units of alat)
               a(1) = (   1.000000   0.000000   0.000000 )  
               a(2) = (  -0.500000   0.866025   0.000000 )  
               a(3) = (   0.000000   0.000000   1.625902 )  

     reciprocal axes: (cart. coord. in units 2 pi/alat)
               b(1) = (  1.000000  0.577350 -0.000000 )  
               b(2) = (  0.000000  1.154701  0.000000 )  
               b(3) = (  0.000000 -0.000000  0.615043 )  


     PseudoPot. # 1 for Ga read from file:
     /home/nico-sachs/source/q-e/SSSP_1.3.0_PBE_efficiency/Ga.pbe-dn-kjpaw_psl.1.0.0.UPF
     MD5 check sum: a27b4342b1af7e5f338de752e9ed7044
     Pseudo is Projector augmented-wave + core cor, Zval = 13.0
     Generated using "atomic" code by A. Dal Corso  v.5.1
     Shape of augmentation charge: PSQ
     Using radial grid of 1205 points,  6 beta functions with: 
                l(1) =   0
                l(2) =   0
                l(3) =   1
                l(4) =   1
                l(5) =   2
                l(6) =   2
     Q(r) pseudized with 0 coefficients 


     PseudoPot. # 2 for N  read from file:
     /home/nico-sachs/source/q-e/SSSP_1.3.0_PBE_efficiency/N.pbe-n-radius_5.UPF
     MD5 check sum: 16739722b17309cd8fe442a2ace49922
     Pseudo is Ultrasoft + core correction, Zval =  5.0
     Generated using "atomic" code by A. Dal Corso  v.5.1
     Using radial grid of 1085 points,  4 beta functions with: 
                l(1) =   0
                l(2) =   0
                l(3) =   1
                l(4) =   1
     Q(r) pseudized with 0 coefficients 


     atomic species   valence    mass     pseudopotential
     Ga               13.00    69.72300     Ga( 1.00)
     N                 5.00    14.00700     N ( 1.00)

     12 Sym. Ops. (no inversion) found ( 6 have fractional translation)



   Cartesian axes

     site n.     atom                  positions (alat units)
         1        Ga     tau(   1) = (  -0.0000000   0.5773503   0.0000000  )
         2        Ga     tau(   2) = (   0.5000000   0.2886751   0.8129508  )
         3        N      tau(   3) = (  -0.0000000   0.5773503   0.6097131  )
         4        N      tau(   4) = (   0.5000000   0.2886751   1.4226638  )

     number of k points=    21
                       cart. coord. in units 2pi/alat
        k(    1) = (   0.0000000   0.0000000   0.0000000), wk =   0.0138889
        k(    2) = (   0.0000000   0.0000000   0.1537608), wk =   0.0277778
        k(    3) = (   0.0000000   0.0000000  -0.3075217), wk =   0.0138889
        k(    4) = (   0.0000000   0.1924501   0.0000000), wk =   0.0833333
        k(    5) = (   0.0000000   0.1924501   0.1537608), wk =   0.1666667
        k(    6) = (   0.0000000   0.1924501  -0.3075217), wk =   0.0833333
        k(    7) = (   0.0000000   0.3849002   0.0000000), wk =   0.0833333
        k(    8) = (   0.0000000   0.3849002   0.1537608), wk =   0.1666667
        k(    9) = (   0.0000000   0.3849002  -0.3075217), wk =   0.0833333
        k(   10) = (   0.0000000  -0.5773503   0.0000000), wk =   0.0416667
        k(   11) = (   0.0000000  -0.5773503   0.1537608), wk =   0.0833333
        k(   12) = (   0.0000000  -0.5773503  -0.3075217), wk =   0.0416667
        k(   13) = (   0.1666667   0.2886751   0.0000000), wk =   0.0833333
        k(   14) = (   0.1666667   0.2886751   0.1537608), wk =   0.1666667
        k(   15) = (   0.1666667   0.2886751  -0.3075217), wk =   0.0833333
        k(   16) = (   0.1666667   0.4811252   0.0000000), wk =   0.1666667
        k(   17) = (   0.1666667   0.4811252   0.1537608), wk =   0.3333333
        k(   18) = (   0.1666667   0.4811252  -0.3075217), wk =   0.1666667
        k(   19) = (   0.3333333   0.5773503   0.0000000), wk =   0.0277778
        k(   20) = (   0.3333333   0.5773503   0.1537608), wk =   0.0555556
        k(   21) = (   0.3333333   0.5773503  -0.3075217), wk =   0.0277778

     Dense  grid:    14715 G-vectors     FFT dimensions: (  27,  27,  48)

     Estimated max dynamical RAM per process >      23.37 MB

     Estimated total dynamical RAM >      93.47 MB

     Check: negative core charge=   -0.000005

     Initial potential from superposition of free atoms

     starting charge      35.9941, renormalised to      36.0000
     Starting wfcs are   26 randomized atomic wfcs
     Checking if some PAW data can be deallocated... 

     total cpu time spent up to now is        1.3 secs

     Self-consistent Calculation

     iteration #  1     ecut=    90.00 Ry     beta= 0.70
     CG style diagonalization
     ethr =  1.00E-02,  avg # of iterations =  2.0

     total cpu time spent up to now is        2.6 secs

     total energy              =    -595.58045944 Ry
     estimated scf accuracy    <       1.11376149 Ry

     iteration #  2     ecut=    90.00 Ry     beta= 0.70
     CG style diagonalization
     ethr =  3.09E-03,  avg # of iterations =  4.8

     total cpu time spent up to now is        5.2 secs

     total energy              =    -596.02827646 Ry
     estimated scf accuracy    <       1.07643836 Ry

     iteration #  3     ecut=    90.00 Ry     beta= 0.70
     CG style diagonalization
     ethr =  2.99E-03,  avg # of iterations =  3.8

     total cpu time spent up to now is        7.3 secs

     total energy              =    -596.21463234 Ry
     estimated scf accuracy    <       0.00934257 Ry

     iteration #  4     ecut=    90.00 Ry     beta= 0.70
     CG style diagonalization
     c_bands:  1 eigenvalues not converged
     c_bands:  1 eigenvalues not converged
     c_bands:  1 eigenvalues not converged
     c_bands:  1 eigenvalues not converged
     c_bands:  2 eigenvalues not converged
     c_bands:  1 eigenvalues not converged
     c_bands:  1 eigenvalues not converged
     c_bands:  1 eigenvalues not converged
     c_bands:  1 eigenvalues not converged
     c_bands:  1 eigenvalues not converged
     ethr =  2.60E-05,  avg # of iterations =  9.9

     total cpu time spent up to now is       12.4 secs

     total energy              =    -596.35957669 Ry
     estimated scf accuracy    <       0.03350629 Ry

     iteration #  5     ecut=    90.00 Ry     beta= 0.70
     CG style diagonalization
     ethr =  2.60E-05,  avg # of iterations =  4.0

     total cpu time spent up to now is       14.6 secs

     total energy              =    -596.36498198 Ry
     estimated scf accuracy    <       0.05016265 Ry

     iteration #  6     ecut=    90.00 Ry     beta= 0.70
     CG style diagonalization
     ethr =  2.60E-05,  avg # of iterations =  5.1

     total cpu time spent up to now is       17.4 secs

     total energy              =    -596.36723256 Ry
     estimated scf accuracy    <       0.12901444 Ry

     iteration #  7     ecut=    90.00 Ry     beta= 0.70
     CG style diagonalization
     ethr =  2.60E-05,  avg # of iterations =  3.9

     total cpu time spent up to now is       19.5 secs

     total energy              =    -596.36887390 Ry
     estimated scf accuracy    <       0.02640984 Ry

     iteration #  8     ecut=    90.00 Ry     beta= 0.70
     CG style diagonalization
     ethr =  2.60E-05,  avg # of iterations =  3.1

     total cpu time spent up to now is       21.2 secs

     total energy              =    -596.37028620 Ry
     estimated scf accuracy    <       0.01954757 Ry

     iteration #  9     ecut=    90.00 Ry     beta= 0.70
     CG style diagonalization
     ethr =  2.60E-05,  avg # of iterations =  3.0

     total cpu time spent up to now is       22.9 secs

     total energy              =    -596.36738969 Ry
     estimated scf accuracy    <       0.02890651 Ry

     iteration # 10     ecut=    90.00 Ry     beta= 0.70
     CG style diagonalization
     ethr =  2.60E-05,  avg # of iterations =  3.8

     total cpu time spent up to now is       25.0 secs

     total energy              =    -596.36931511 Ry
     estimated scf accuracy    <       0.00553096 Ry

     iteration # 11     ecut=    90.00 Ry     beta= 0.70
     CG style diagonalization
     ethr =  1.54E-05,  avg # of iterations =  3.3

     total cpu time spent up to now is       26.8 secs

     total energy              =    -596.36839909 Ry
     estimated scf accuracy    <       0.00991104 Ry

     iteration # 12     ecut=    90.00 Ry     beta= 0.70
     CG style diagonalization
     ethr =  1.54E-05,  avg # of iterations =  3.1

     total cpu time spent up to now is       28.6 secs

     total energy              =    -596.36878268 Ry
     estimated scf accuracy    <       0.00012430 Ry

     iteration # 13     ecut=    90.00 Ry     beta= 0.70
     CG style diagonalization
     c_bands:  1 eigenvalues not converged
     c_bands:  1 eigenvalues not converged
     c_bands:  1 eigenvalues not converged
     ethr =  3.45E-07,  avg # of iterations =  7.3

     total cpu time spent up to now is       32.6 secs

     total energy              =    -596.36934396 Ry
     estimated scf accuracy    <       0.00082335 Ry

     iteration # 14     ecut=    90.00 Ry     beta= 0.70
     CG style diagonalization
     ethr =  3.45E-07,  avg # of iterations =  4.0

     total cpu time spent up to now is       34.8 secs

     total energy              =    -596.36935041 Ry
     estimated scf accuracy    <       0.00066808 Ry

     iteration # 15     ecut=    90.00 Ry     beta= 0.70
     CG style diagonalization
     ethr =  3.45E-07,  avg # of iterations =  3.4

     total cpu time spent up to now is       36.9 secs

     total energy              =    -596.36924121 Ry
     estimated scf accuracy    <       0.00036304 Ry

     iteration # 16     ecut=    90.00 Ry     beta= 0.70
     CG style diagonalization
     ethr =  3.45E-07,  avg # of iterations =  5.2

     total cpu time spent up to now is       40.1 secs

     total energy              =    -596.36932473 Ry
     estimated scf accuracy    <       0.00010943 Ry

     iteration # 17     ecut=    90.00 Ry     beta= 0.70
     CG style diagonalization
     ethr =  3.04E-07,  avg # of iterations =  4.0

     total cpu time spent up to now is       42.6 secs

     total energy              =    -596.36935290 Ry
     estimated scf accuracy    <       0.00013668 Ry

     iteration # 18     ecut=    90.00 Ry     beta= 0.70
     CG style diagonalization
     ethr =  3.04E-07,  avg # of iterations =  3.2

     total cpu time spent up to now is       44.7 secs

     total energy              =    -596.36936529 Ry
     estimated scf accuracy    <       0.00000969 Ry

     iteration # 19     ecut=    90.00 Ry     beta= 0.70
     CG style diagonalization
     ethr =  2.69E-08,  avg # of iterations =  7.2

     total cpu time spent up to now is       49.2 secs

     total energy              =    -596.36940187 Ry
     estimated scf accuracy    <       0.00000586 Ry

     iteration # 20     ecut=    90.00 Ry     beta= 0.70
     CG style diagonalization
     c_bands:  1 eigenvalues not converged
     ethr =  1.63E-08,  avg # of iterations =  6.8

     total cpu time spent up to now is       53.3 secs

     total energy              =    -596.36938613 Ry
     estimated scf accuracy    <       0.00028476 Ry

     iteration # 21     ecut=    90.00 Ry     beta= 0.70
     CG style diagonalization
     ethr =  1.63E-08,  avg # of iterations =  4.9

     total cpu time spent up to now is       56.3 secs

     total energy              =    -596.36938847 Ry
     estimated scf accuracy    <       0.00004762 Ry

     iteration # 22     ecut=    90.00 Ry     beta= 0.70
     CG style diagonalization
     ethr =  1.63E-08,  avg # of iterations =  5.6

     total cpu time spent up to now is       59.6 secs

     total energy              =    -596.36939050 Ry
     estimated scf accuracy    <       0.00003036 Ry

     iteration # 23     ecut=    90.00 Ry     beta= 0.70
     CG style diagonalization
     ethr =  1.63E-08,  avg # of iterations =  4.7

     total cpu time spent up to now is       62.5 secs

     total energy              =    -596.36939262 Ry
     estimated scf accuracy    <       0.00000909 Ry

     iteration # 24     ecut=    90.00 Ry     beta= 0.70
     CG style diagonalization
     ethr =  1.63E-08,  avg # of iterations =  3.3

     total cpu time spent up to now is       64.5 secs

     total energy              =    -596.36939080 Ry
     estimated scf accuracy    <       0.00000668 Ry

     iteration # 25     ecut=    90.00 Ry     beta= 0.70
     CG style diagonalization
     ethr =  1.63E-08,  avg # of iterations =  4.0

     total cpu time spent up to now is       67.0 secs

     End of self-consistent calculation

          k = 0.0000 0.0000 0.0000 (  4427 PWs)   bands (ev):

    -6.2592  -5.3543  -3.7681  -3.7472  -3.7472  -3.6853  -3.6853  -3.4995
    -3.4995  -3.4003  -3.4003  -2.1413   2.6381   8.6780   8.6780   9.6630
     9.7252   9.7252

          k = 0.0000 0.0000 0.1538 (  4422 PWs)   bands (ev):

    -6.0839  -5.4261  -3.7434  -3.7434  -3.7108  -3.6993  -3.6993  -3.4800
    -3.4800  -3.4103  -3.4103  -2.6935   3.6923   8.1699   8.8246   8.8246
     9.5651   9.5651

          k = 0.0000 0.0000-0.3075 (  4386 PWs)   bands (ev):

    -5.6991  -5.6991  -3.7263  -3.7263  -3.7263  -3.7263  -3.4406  -3.4406
    -3.4406  -3.4406  -3.4133  -3.4133   5.8623   5.8623   9.1880   9.1880
     9.1880   9.1880

          k = 0.0000 0.1925 0.0000 (  4448 PWs)   bands (ev):

    -6.0081  -5.2964  -3.7352  -3.7135  -3.6705  -3.6355  -3.6348  -3.5205
    -3.4981  -3.4364  -3.3948  -1.9565   3.0224   7.0018   8.0043   8.1711
     9.3758   9.4885

          k = 0.0000 0.1925 0.1538 (  4432 PWs)   bands (ev):

    -5.8576  -5.3452  -3.7258  -3.7057  -3.6769  -3.6498  -3.6109  -3.4831
    -3.4800  -3.4368  -3.4072  -2.4700   3.9341   7.1177   7.4481   8.3478
     9.0104   9.2769

          k = 0.0000 0.1925-0.3075 (  4420 PWs)   bands (ev):

    -5.5461  -5.5461  -3.7011  -3.7011  -3.6813  -3.6813  -3.5240  -3.5240
    -3.4408  -3.4408  -3.1736  -3.1736   5.6981   5.6981   8.0822   8.0822
     8.7951   8.7951

          k = 0.0000 0.3849 0.0000 (  4436 PWs)   bands (ev):

    -5.5494  -5.2187  -3.6978  -3.6788  -3.6008  -3.5378  -3.5360  -3.5022
    -3.4535  -3.3838  -3.0801  -1.5939   3.7556   4.8344   5.8320   7.3409
     8.4329   8.9903

          k = 0.0000 0.3849 0.1538 (  4440 PWs)   bands (ev):

    -5.4650  -5.2318  -3.7053  -3.6567  -3.6328  -3.5544  -3.5373  -3.4855
    -3.4463  -3.3977  -2.9633  -1.9496   3.7672   5.0284   6.0359   7.5538
     8.5349   8.7126

          k = 0.0000 0.3849-0.3075 (  4454 PWs)   bands (ev):

    -5.3110  -5.3110  -3.6891  -3.6891  -3.6040  -3.6040  -3.5034  -3.5034
    -3.4251  -3.4251  -2.5684  -2.5684   4.2512   4.2512   7.6311   7.6311
     8.1018   8.1018

          k = 0.0000-0.5774 0.0000 (  4474 PWs)   bands (ev):

    -5.3717  -5.1979  -3.7009  -3.6770  -3.5830  -3.5393  -3.4918  -3.4856
    -3.4098  -3.3749  -2.2575  -1.7167   3.2787   4.4580   5.4914   6.9793
     7.4889   8.7467

          k = 0.0000-0.5774 0.1538 (  4456 PWs)   bands (ev):

    -5.3208  -5.1979  -3.7134  -3.6481  -3.6253  -3.5425  -3.5137  -3.4452
    -3.4084  -3.3873  -2.2018  -1.8122   3.0112   3.8633   6.4143   7.2053
     8.0176   8.4452

          k = 0.0000-0.5774-0.3075 (  4452 PWs)   bands (ev):

    -5.2332  -5.2332  -3.7030  -3.7030  -3.5782  -3.5782  -3.4691  -3.4691
    -3.4024  -3.4024  -2.0300  -2.0300   3.1281   3.1281   7.7889   7.7889
     7.8149   7.8149

          k = 0.1667 0.2887 0.0000 (  4443 PWs)   bands (ev):

    -5.6528  -5.2338  -3.7025  -3.6799  -3.6114  -3.5874  -3.5394  -3.4787
    -3.4678  -3.4217  -3.2607  -1.6616   3.6595   5.6778   6.0548   7.3241
     8.7156   8.8007

          k = 0.1667 0.2887 0.1538 (  4445 PWs)   bands (ev):

    -5.5505  -5.2540  -3.6853  -3.6821  -3.6257  -3.6122  -3.5184  -3.5124
    -3.4451  -3.4289  -3.1528  -2.0811   4.0798   5.7178   6.2986   7.2862
     8.4070   8.7904

          k = 0.1667 0.2887-0.3075 (  4448 PWs)   bands (ev):

    -5.3588  -5.3588  -3.6651  -3.6651  -3.6378  -3.6378  -3.5341  -3.5341
    -3.4303  -3.4303  -2.7577  -2.7577   4.8867   4.8867   7.6055   7.6055
     7.9159   7.9159

          k = 0.1667 0.4811 0.0000 (  4446 PWs)   bands (ev):

    -5.3608  -5.2029  -3.7237  -3.6414  -3.5536  -3.5385  -3.5174  -3.4971
    -3.4354  -3.4014  -2.4208  -1.5086   3.7165   4.6711   5.5235   6.0978
     7.6977   7.9651

          k = 0.1667 0.4811 0.1538 (  4450 PWs)   bands (ev):

    -5.3110  -5.2001  -3.6933  -3.6585  -3.6043  -3.5403  -3.5184  -3.4762
    -3.4279  -3.4179  -2.3266  -1.6804   3.4517   4.2387   5.9654   6.7326
     7.5269   8.2184

          k = 0.1667 0.4811-0.3075 (  4450 PWs)   bands (ev):

    -5.2284  -5.2284  -3.6680  -3.6680  -3.5981  -3.5981  -3.4964  -3.4964
    -3.4205  -3.4205  -2.0443  -2.0443   3.5811   3.5811   6.6755   6.6755
     8.0602   8.0602

          k = 0.3333 0.5774 0.0000 (  4449 PWs)   bands (ev):

    -5.2384  -5.2384  -3.7526  -3.5459  -3.5459  -3.5276  -3.5138  -3.5138
    -3.4668  -3.4196  -1.7225  -1.7224   4.3949   4.3949   4.4460   6.7164
     6.7164   7.0338

          k = 0.3333 0.5774 0.1538 (  4449 PWs)   bands (ev):

    -5.2158  -5.2158  -3.7126  -3.5992  -3.5992  -3.5365  -3.4732  -3.4732
    -3.4713  -3.4554  -1.7168  -1.7168   3.9073   3.9073   4.7442   6.5283
     7.5191   7.5191

          k = 0.3333 0.5774-0.3075 (  4494 PWs)   bands (ev):

    -5.1926  -5.1926  -3.6316  -3.6316  -3.6138  -3.6138  -3.4786  -3.4786
    -3.4542  -3.4542  -1.7109  -1.7109   3.5638   3.5638   5.5439   5.5439
     8.2334   8.2334

     highest occupied level (ev):     9.7252

!    total energy              =    -596.36939153 Ry
     estimated scf accuracy    <       0.00000080 Ry

     The total energy is the sum of the following terms:
     one-electron contribution =    -181.38470946 Ry
     hartree contribution      =     130.15737165 Ry
     xc contribution           =     -87.88103882 Ry
     ewald contribution        =    -233.28276136 Ry
     one-center paw contrib.   =    -223.97825355 Ry

     convergence has been achieved in  25 iterations

     Forces acting on atoms (cartesian axes, Ry/au):

     atom    1 type  1   force =     0.00000000   -0.00000000   -0.00477309
     atom    2 type  1   force =     0.00000000    0.00000000   -0.00477309
     atom    3 type  2   force =     0.00000000    0.00000000    0.00477309
     atom    4 type  2   force =     0.00000000   -0.00000000    0.00477309

     Total force =     0.009546     Total SCF correction =     0.000055


     Computing stress (Cartesian axis) and pressure

          total   stress  (Ry/bohr**3)                   (kbar)     P=       52.47
   0.00031832  -0.00000000   0.00000000           46.83       -0.00        0.00
  -0.00000000   0.00031832   0.00000000           -0.00       46.83        0.00
   0.00000000   0.00000000   0.00043337            0.00        0.00       63.75


     Writing all to output data dir /home/nico-sachs/source/q-e/tempdir/gan.save/ :
     XML data file, charge density, pseudopotentials, collected wavefunctions

     init_run     :      1.02s CPU      1.07s WALL (       1 calls)
     electrons    :     63.18s CPU     65.75s WALL (       1 calls)
     forces       :      0.28s CPU      0.29s WALL (       1 calls)
     stress       :      1.04s CPU      1.04s WALL (       1 calls)

     Called by init_run:
     wfcinit      :      0.51s CPU      0.53s WALL (       1 calls)
     potinit      :      0.24s CPU      0.27s WALL (       1 calls)
     hinit0       :      0.23s CPU      0.23s WALL (       1 calls)

     Called by electrons:
     c_bands      :     52.98s CPU     54.88s WALL (      25 calls)
     sum_band     :      3.45s CPU      3.61s WALL (      25 calls)
     v_of_rho     :      0.10s CPU      0.11s WALL (      26 calls)
     newd         :      0.42s CPU      0.43s WALL (      26 calls)
     PAW_pot      :      6.43s CPU      6.96s WALL (      26 calls)
     mix_rho      :      0.03s CPU      0.03s WALL (      25 calls)

     Called by c_bands:
     init_us_2    :      0.53s CPU      0.55s WALL (    1113 calls)
     ccgdiagg     :     44.46s CPU     46.07s WALL (     525 calls)
     wfcrot       :      8.56s CPU      8.85s WALL (     525 calls)

     Called by *cgdiagg:
     h_psi        :     28.06s CPU     29.21s WALL (   34356 calls)
     s_psi        :     10.31s CPU     10.64s WALL (   68187 calls)

     Called by h_psi:
     h_psi:calbec :      8.39s CPU      8.72s WALL (   34356 calls)
     vloc_psi     :     13.40s CPU     14.02s WALL (   34356 calls)
                                        0.00s GPU  (   34356 calls)
     add_vuspsi   :      5.89s CPU      6.10s WALL (   34356 calls)
     hs_1psi      :     27.36s CPU     28.45s WALL (   33831 calls)
     s_1psi       :     11.47s CPU     11.83s WALL (   33831 calls)

     General routines
     calbec       :     17.29s CPU     17.89s WALL (   69069 calls)
     fft          :      0.15s CPU      0.16s WALL (     311 calls)
     ffts         :      0.00s CPU      0.00s WALL (      25 calls)
     fftw         :     13.48s CPU     14.16s WALL (   96348 calls)

     Parallel routines

     PWSCF        :   1m 5.72s CPU   1m 8.40s WALL


   This run was terminated on:  14:12:19  27Jan2026            

=------------------------------------------------------------------------------=
   JOB DONE.
=------------------------------------------------------------------------------=
