
     Program PWSCF v.7.5 starts on 26Jan2026 at 16:17:28 

     This program is part of the open-source Quantum ESPRESSO suite
     for quantum simulation of materials; please cite
         "P. Giannozzi et al., J. Phys.:Condens. Matter 21 395502 (2009);
         "P. Giannozzi et al., J. Phys.:Condens. Matter 29 465901 (2017);
         "P. Giannozzi et al., J. Chem. Phys. 152 154105 (2020);
          URL http://www.quantum-espresso.org", 
     in publications or presentations arising from this work. More details at
     http://www.quantum-espresso.org/quote

     Parallel version (MPI), running on     1 processors

     MPI processes distributed on     1 nodes
     25072 MiB available memory on the printing compute node when the environment starts

     Waiting for input...
     Reading input from standard input

     Current dimensions of program PWSCF are:
     Max number of different atomic species (ntypx) = 10
     Max number of k-points (npk) =  40000
     Max angular momentum in pseudopotentials (lmaxx) =  4
     file Ga.pbe-dn-kjpaw_psl.1.0.0.UPF: wavefunction(s)  4S renormalized
     file Al.pbe-n-kjpaw_psl.1.0.0.UPF: wavefunction(s)  3S 3P renormalized
     Message from routine set_cutoff:
     ecutrho < 4*ecutwfc, are you sure?
     Message from routine volume:
     axis vectors are left-handed
     Message from routine setup:
     using ibrav=0 with symmetry is DISCOURAGED, use correct ibrav instead

     Subspace diagonalization in iterative solution of the eigenvalue problem:
     a serial algorithm will be used


     G-vector sticks info
     --------------------
     sticks:   dense  smooth     PW     G-vecs:    dense   smooth      PW
     Sum         685     685    241                11935    11935    2421

     Using Slab Decomposition



     bravais-lattice index     =            0
     lattice parameter (alat)  =      10.6829  a.u.
     unit-cell volume          =     304.7984 (a.u.)^3
     number of atoms/cell      =            2
     number of atomic types    =            2
     number of electrons       =        16.00
     number of Kohn-Sham states=           12
     kinetic-energy cutoff     =      50.0000  Ry
     charge density cutoff     =     175.0000  Ry
     scf convergence threshold =      1.0E-06
     mixing beta               =       0.7000
     number of iterations used =            8  plain     mixing
     Exchange-correlation= SLA  PW   PBX  PBC
                           (   1   4   3   4   0   0   0)

     celldm(1)=  10.682943  celldm(2)=   0.000000  celldm(3)=   0.000000
     celldm(4)=   0.000000  celldm(5)=   0.000000  celldm(6)=   0.000000

     crystal axes: (cart. coord. in units of alat)
               a(1) = (   0.500000   0.500000   0.000000 )  
               a(2) = (   0.500000   0.000000   0.500000 )  
               a(3) = (   0.000000   0.500000   0.500000 )  

     reciprocal axes: (cart. coord. in units 2 pi/alat)
               b(1) = (  1.000000  1.000000 -1.000000 )  
               b(2) = (  1.000000 -1.000000  1.000000 )  
               b(3) = ( -1.000000  1.000000  1.000000 )  


     PseudoPot. # 1 for Ga read from file:
     /home/nico-sachs/source/q-e/SSSP_1.3.0_PBE_efficiency/Ga.pbe-dn-kjpaw_psl.1.0.0.UPF
     MD5 check sum: a27b4342b1af7e5f338de752e9ed7044
     Pseudo is Projector augmented-wave + core cor, Zval = 13.0
     Generated using "atomic" code by A. Dal Corso  v.5.1
     Shape of augmentation charge: PSQ
     Using radial grid of 1205 points,  6 beta functions with: 
                l(1) =   0
                l(2) =   0
                l(3) =   1
                l(4) =   1
                l(5) =   2
                l(6) =   2
     Q(r) pseudized with 0 coefficients 


     PseudoPot. # 2 for Al read from file:
     /home/nico-sachs/source/q-e/SSSP_1.3.0_PBE_efficiency/Al.pbe-n-kjpaw_psl.1.0.0.UPF
     MD5 check sum: cfc449ca30b5f3223ec38ddd88ac046d
     Pseudo is Projector augmented-wave + core cor, Zval =  3.0
     Generated using "atomic" code by A. Dal Corso  v.5.1
     Shape of augmentation charge: PSQ
     Using radial grid of 1135 points,  6 beta functions with: 
                l(1) =   0
                l(2) =   0
                l(3) =   1
                l(4) =   1
                l(5) =   2
                l(6) =   2
     Q(r) pseudized with 0 coefficients 


     atomic species   valence    mass     pseudopotential
     Ga               13.00    69.72300     Ga( 1.00)
     As                3.00    74.92100     Al( 1.00)

     24 Sym. Ops. (no inversion) found



   Cartesian axes

     site n.     atom                  positions (alat units)
         1        As     tau(   1) = (   0.2500000   0.2500000   0.2500000  )
         2        Ga     tau(   2) = (   0.0000000   0.0000000   0.0000000  )

     number of k points=    60  Marzari-Vanderbilt smearing, width (Ry)=  0.0500
                       cart. coord. in units 2pi/alat
        k(    1) = (   0.0625000   0.0625000   0.0625000), wk =   0.0078125
        k(    2) = (   0.0625000   0.0625000   0.1875000), wk =   0.0234375
        k(    3) = (   0.0625000   0.0625000   0.3125000), wk =   0.0234375
        k(    4) = (   0.0625000   0.0625000   0.4375000), wk =   0.0234375
        k(    5) = (   0.0625000   0.0625000   0.5625000), wk =   0.0234375
        k(    6) = (   0.0625000   0.0625000   0.6875000), wk =   0.0234375
        k(    7) = (   0.0625000   0.0625000   0.8125000), wk =   0.0234375
        k(    8) = (   0.0625000   0.0625000   0.9375000), wk =   0.0234375
        k(    9) = (   0.0625000   0.1875000   0.1875000), wk =   0.0234375
        k(   10) = (   0.0625000   0.1875000   0.3125000), wk =   0.0468750
        k(   11) = (   0.0625000   0.1875000   0.4375000), wk =   0.0468750
        k(   12) = (   0.0625000   0.1875000   0.5625000), wk =   0.0468750
        k(   13) = (   0.0625000   0.1875000   0.6875000), wk =   0.0468750
        k(   14) = (   0.0625000   0.1875000   0.8125000), wk =   0.0468750
        k(   15) = (   0.0625000   0.1875000   0.9375000), wk =   0.0468750
        k(   16) = (   0.0625000   0.3125000   0.3125000), wk =   0.0234375
        k(   17) = (   0.0625000   0.3125000   0.4375000), wk =   0.0468750
        k(   18) = (   0.0625000   0.3125000   0.5625000), wk =   0.0468750
        k(   19) = (   0.0625000   0.3125000   0.6875000), wk =   0.0468750
        k(   20) = (   0.0625000   0.3125000   0.8125000), wk =   0.0468750
        k(   21) = (   0.0625000   0.3125000   0.9375000), wk =   0.0468750
        k(   22) = (   0.0625000   0.4375000   0.4375000), wk =   0.0234375
        k(   23) = (   0.0625000   0.4375000   0.5625000), wk =   0.0468750
        k(   24) = (   0.0625000   0.4375000   0.6875000), wk =   0.0468750
        k(   25) = (   0.0625000   0.4375000   0.8125000), wk =   0.0468750
        k(   26) = (   0.0625000   0.4375000   0.9375000), wk =   0.0468750
        k(   27) = (   0.0625000   0.5625000   0.5625000), wk =   0.0234375
        k(   28) = (   0.0625000   0.5625000   0.6875000), wk =   0.0468750
        k(   29) = (   0.0625000   0.5625000   0.8125000), wk =   0.0468750
        k(   30) = (   0.0625000   0.6875000   0.6875000), wk =   0.0234375
        k(   31) = (   0.0625000   0.6875000   0.8125000), wk =   0.0468750
        k(   32) = (   0.0625000   0.8125000   0.8125000), wk =   0.0234375
        k(   33) = (   0.1875000   0.1875000   0.1875000), wk =   0.0078125
        k(   34) = (   0.1875000   0.1875000   0.3125000), wk =   0.0234375
        k(   35) = (   0.1875000   0.1875000   0.4375000), wk =   0.0234375
        k(   36) = (   0.1875000   0.1875000   0.5625000), wk =   0.0234375
        k(   37) = (   0.1875000   0.1875000   0.6875000), wk =   0.0234375
        k(   38) = (   0.1875000   0.1875000   0.8125000), wk =   0.0234375
        k(   39) = (   0.1875000   0.3125000   0.3125000), wk =   0.0234375
        k(   40) = (   0.1875000   0.3125000   0.4375000), wk =   0.0468750
        k(   41) = (   0.1875000   0.3125000   0.5625000), wk =   0.0468750
        k(   42) = (   0.1875000   0.3125000   0.6875000), wk =   0.0468750
        k(   43) = (   0.1875000   0.3125000   0.8125000), wk =   0.0468750
        k(   44) = (   0.1875000   0.4375000   0.4375000), wk =   0.0234375
        k(   45) = (   0.1875000   0.4375000   0.5625000), wk =   0.0468750
        k(   46) = (   0.1875000   0.4375000   0.6875000), wk =   0.0468750
        k(   47) = (   0.1875000   0.4375000   0.8125000), wk =   0.0468750
        k(   48) = (   0.1875000   0.5625000   0.5625000), wk =   0.0234375
        k(   49) = (   0.1875000   0.5625000   0.6875000), wk =   0.0468750
        k(   50) = (   0.1875000   0.6875000   0.6875000), wk =   0.0234375
        k(   51) = (   0.3125000   0.3125000   0.3125000), wk =   0.0078125
        k(   52) = (   0.3125000   0.3125000   0.4375000), wk =   0.0234375
        k(   53) = (   0.3125000   0.3125000   0.5625000), wk =   0.0234375
        k(   54) = (   0.3125000   0.3125000   0.6875000), wk =   0.0234375
        k(   55) = (   0.3125000   0.4375000   0.4375000), wk =   0.0234375
        k(   56) = (   0.3125000   0.4375000   0.5625000), wk =   0.0468750
        k(   57) = (   0.3125000   0.4375000   0.6875000), wk =   0.0468750
        k(   58) = (   0.3125000   0.5625000   0.5625000), wk =   0.0234375
        k(   59) = (   0.4375000   0.4375000   0.4375000), wk =   0.0078125
        k(   60) = (   0.4375000   0.4375000   0.5625000), wk =   0.0234375

     Dense  grid:    11935 G-vectors     FFT dimensions: (  32,  32,  32)

     Estimated max dynamical RAM per process >      67.63 MB

     Check: negative core charge=   -0.000005

     Initial potential from superposition of free atoms

     starting charge      15.9948, renormalised to      16.0000
     Starting wfcs are   13 randomized atomic wfcs
     Checking if some PAW data can be deallocated... 

     total cpu time spent up to now is        1.9 secs

     Self-consistent Calculation

     iteration #  1     ecut=    50.00 Ry     beta= 0.70
     CG style diagonalization
     ethr =  1.00E-02,  avg # of iterations =  3.0

     Threshold (ethr) on eigenvalues was too large:
     Diagonalizing with lowered threshold

     CG style diagonalization
     c_bands:  2 eigenvalues not converged
     c_bands:  1 eigenvalues not converged
     c_bands:  1 eigenvalues not converged
     ethr =  4.69E-05,  avg # of iterations =  7.9

     total cpu time spent up to now is       10.5 secs

     total energy              =    -317.34847639 Ry
     estimated scf accuracy    <       0.00997221 Ry

     iteration #  2     ecut=    50.00 Ry     beta= 0.70
     CG style diagonalization
     ethr =  6.23E-05,  avg # of iterations =  3.0

     total cpu time spent up to now is       13.0 secs

     total energy              =    -317.34886252 Ry
     estimated scf accuracy    <       0.00083821 Ry

     iteration #  3     ecut=    50.00 Ry     beta= 0.70
     CG style diagonalization
     c_bands:  1 eigenvalues not converged
     c_bands:  1 eigenvalues not converged
     c_bands:  1 eigenvalues not converged
     c_bands:  1 eigenvalues not converged
     c_bands:  1 eigenvalues not converged
     ethr =  5.24E-06,  avg # of iterations =  4.9

     total cpu time spent up to now is       17.0 secs

     total energy              =    -317.34912960 Ry
     estimated scf accuracy    <       0.00000813 Ry

     iteration #  4     ecut=    50.00 Ry     beta= 0.70
     CG style diagonalization
     c_bands:  1 eigenvalues not converged
     c_bands:  1 eigenvalues not converged
     c_bands:  1 eigenvalues not converged
     c_bands:  1 eigenvalues not converged
     c_bands:  1 eigenvalues not converged
     c_bands:  1 eigenvalues not converged
     c_bands:  1 eigenvalues not converged
     c_bands:  1 eigenvalues not converged
     c_bands:  1 eigenvalues not converged
     c_bands:  1 eigenvalues not converged
     c_bands:  2 eigenvalues not converged
     c_bands:  1 eigenvalues not converged
     c_bands:  1 eigenvalues not converged
     ethr =  5.08E-08,  avg # of iterations = 10.5

     total cpu time spent up to now is       24.8 secs

     total energy              =    -317.34934457 Ry
     estimated scf accuracy    <       0.00017670 Ry

     iteration #  5     ecut=    50.00 Ry     beta= 0.70
     CG style diagonalization
     ethr =  5.08E-08,  avg # of iterations =  3.2

     total cpu time spent up to now is       27.5 secs

     total energy              =    -317.34932569 Ry
     estimated scf accuracy    <       0.00018560 Ry

     iteration #  6     ecut=    50.00 Ry     beta= 0.70
     CG style diagonalization
     ethr =  5.08E-08,  avg # of iterations =  3.0

     total cpu time spent up to now is       30.1 secs

     total energy              =    -317.34929562 Ry
     estimated scf accuracy    <       0.00012238 Ry

     iteration #  7     ecut=    50.00 Ry     beta= 0.70
     CG style diagonalization
     ethr =  5.08E-08,  avg # of iterations =  3.8

     total cpu time spent up to now is       33.2 secs

     total energy              =    -317.34930013 Ry
     estimated scf accuracy    <       0.00003163 Ry

     iteration #  8     ecut=    50.00 Ry     beta= 0.70
     CG style diagonalization
     ethr =  5.08E-08,  avg # of iterations =  3.5

     total cpu time spent up to now is       36.1 secs

     total energy              =    -317.34930196 Ry
     estimated scf accuracy    <       0.00002497 Ry

     iteration #  9     ecut=    50.00 Ry     beta= 0.70
     CG style diagonalization
     ethr =  5.08E-08,  avg # of iterations =  3.1

     total cpu time spent up to now is       38.7 secs

     total energy              =    -317.34930026 Ry
     estimated scf accuracy    <       0.00002172 Ry

     iteration # 10     ecut=    50.00 Ry     beta= 0.70
     CG style diagonalization
     ethr =  5.08E-08,  avg # of iterations =  3.1

     total cpu time spent up to now is       41.3 secs

     total energy              =    -317.34930272 Ry
     estimated scf accuracy    <       0.00001709 Ry

     iteration # 11     ecut=    50.00 Ry     beta= 0.70
     CG style diagonalization
     ethr =  5.08E-08,  avg # of iterations =  3.0

     total cpu time spent up to now is       44.0 secs

     total energy              =    -317.34929753 Ry
     estimated scf accuracy    <       0.00002336 Ry

     iteration # 12     ecut=    50.00 Ry     beta= 0.70
     CG style diagonalization
     ethr =  5.08E-08,  avg # of iterations =  3.4

     total cpu time spent up to now is       47.0 secs

     End of self-consistent calculation

          k = 0.0625 0.0625 0.0625 (  1829 PWs)   bands (ev):

    -9.0477  -9.0469  -9.0469  -8.9853  -8.9853  -3.8324   7.5890   8.0812
     8.0814  10.4723  10.5236  10.5238

          k = 0.0625 0.0625 0.1875 (  1839 PWs)   bands (ev):

    -9.0493  -9.0446  -9.0444  -8.9865  -8.9842  -3.6982   6.8135   7.5567
     7.7919  10.1527  10.9150  11.1952

          k = 0.0625 0.0625 0.3125 (  1823 PWs)   bands (ev):

    -9.0526  -9.0399  -9.0396  -8.9888  -8.9821  -3.4311   5.9513   6.9145
     7.0702   9.6268  11.7058  12.1203

          k = 0.0625 0.0625 0.4375 (  1825 PWs)   bands (ev):

    -9.0570  -9.0337  -9.0334  -8.9922  -8.9794  -3.0336   5.0370   6.3125
     6.3162   9.0986  10.9906  13.1170

          k = 0.0625 0.0625 0.5625 (  1822 PWs)   bands (ev):

    -9.0616  -9.0268  -9.0265  -8.9961  -8.9766  -2.5108   4.0534   5.6741
     5.8121   8.6410  10.0711  14.1120

          k = 0.0625 0.0625 0.6875 (  1809 PWs)   bands (ev):

    -9.0658  -9.0204  -9.0200  -8.9998  -8.9739  -1.8728   3.0205   5.1991
     5.4227   8.2853   9.3724  15.1254

          k = 0.0625 0.0625 0.8125 (  1800 PWs)   bands (ev):

    -9.0690  -9.0154  -9.0149  -9.0030  -8.9720  -1.1442   2.0003   4.8875
     5.1585   8.0445   8.9115  16.1795

          k = 0.0625 0.0625 0.9375 (  1801 PWs)   bands (ev):

    -9.0707  -9.0127  -9.0122  -9.0047  -8.9710  -0.4363   1.1377   4.7333
     5.0251   7.9240   8.6833  17.0503

          k = 0.0625 0.1875 0.1875 (  1836 PWs)   bands (ev):

    -9.0489  -9.0441  -9.0425  -8.9864  -8.9842  -3.5650   6.0163   7.1141
     7.9812  10.5806  10.7238  11.1238

          k = 0.0625 0.1875 0.3125 (  1830 PWs)   bands (ev):

    -9.0511  -9.0402  -9.0390  -8.9880  -8.9825  -3.3000   5.2042   6.4633
     7.5523  10.2700  11.1805  11.8443

          k = 0.0625 0.1875 0.4375 (  1823 PWs)   bands (ev):

    -9.0548  -9.0346  -9.0336  -8.9908  -8.9799  -2.9065   4.4211   5.8334
     6.7805   9.7531  11.4746  12.0578

          k = 0.0625 0.1875 0.5625 (  1824 PWs)   bands (ev):

    -9.0590  -9.0290  -9.0269  -8.9943  -8.9773  -2.3906   3.6415   5.2663
     6.0032   9.2743  10.6659  12.8996

          k = 0.0625 0.1875 0.6875 (  1814 PWs)   bands (ev):

    -9.0628  -9.0235  -9.0204  -8.9979  -8.9750  -1.7645   2.8197   4.7773
     5.4019   8.8857  10.0598  13.7892

          k = 0.0625 0.1875 0.8125 (  1810 PWs)   bands (ev):

    -9.0657  -9.0191  -9.0153  -9.0008  -8.9734  -1.0574   1.9562   4.4130
     5.0304   8.6134   9.6725  14.7182

          k = 0.0625 0.1875 0.9375 (  1808 PWs)   bands (ev):

    -9.0673  -9.0165  -9.0125  -9.0026  -8.9726  -0.3905   1.1963   4.2233
     4.8571   8.4735   9.4848  15.6620

          k = 0.0625 0.3125 0.3125 (  1831 PWs)   bands (ev):

    -9.0501  -9.0390  -9.0374  -8.9873  -8.9826  -3.0400   4.4417   5.8243
     7.6518  10.7862  11.1510  11.5113

          k = 0.0625 0.3125 0.4375 (  1831 PWs)   bands (ev):

    -9.0517  -9.0354  -9.0338  -8.9886  -8.9811  -2.6554   3.7354   5.2166
     7.1166  10.7219  11.0661  12.2854

          k = 0.0625 0.3125 0.5625 (  1825 PWs)   bands (ev):

    -9.0547  -9.0321  -9.0273  -8.9914  -8.9790  -2.1551   3.0867   4.6935
     6.2628  10.2853  11.4551  11.7850

          k = 0.0625 0.3125 0.6875 (  1821 PWs)   bands (ev):

    -9.0576  -9.0285  -9.0207  -8.9945  -8.9772  -1.5562   2.4668   4.2722
     5.4199   9.9055  11.1202  12.3116

          k = 0.0625 0.3125 0.8125 (  1820 PWs)   bands (ev):

    -9.0599  -9.0253  -9.0155  -8.9974  -8.9760  -0.8987   1.8406   3.9602
     4.7939   9.6399  10.8010  13.1326

          k = 0.0625 0.3125 0.9375 (  1812 PWs)   bands (ev):

    -9.0612  -9.0233  -9.0126  -8.9991  -8.9755  -0.3210   1.2857   3.7828
     4.4827   9.5046  10.6424  14.0391

          k = 0.0625 0.4375 0.4375 (  1831 PWs)   bands (ev):

    -9.0501  -9.0345  -9.0325  -8.9868  -8.9825  -2.2873   3.1000   4.6344
     7.0544  10.3449  11.8555  12.1161

          k = 0.0625 0.4375 0.5625 (  1823 PWs)   bands (ev):

    -9.0510  -9.0336  -9.0273  -8.9879  -8.9818  -1.8159   2.5433   4.1493
     6.4531  10.2856  11.5794  12.9290

          k = 0.0625 0.4375 0.6875 (  1817 PWs)   bands (ev):

    -9.0527  -9.0324  -9.0210  -8.9911  -8.9800  -1.2681   2.0663   3.7929
     5.5777  10.6389  11.3148  12.5451

          k = 0.0625 0.4375 0.8125 (  1817 PWs)   bands (ev):

    -9.0542  -9.0310  -9.0157  -8.9942  -8.9788  -0.7024   1.6581   3.5890
     4.7545  10.8211  11.5322  12.3133

          k = 0.0625 0.4375 0.9375 (  1813 PWs)   bands (ev):

    -9.0550  -9.0300  -9.0127  -8.9961  -8.9781  -0.2678   1.3542   3.5424
     4.2149  10.7590  11.8718  12.5972

          k = 0.0625 0.5625 0.5625 (  1813 PWs)   bands (ev):

    -9.0507  -9.0321  -9.0256  -8.9862  -8.9839  -1.3959   2.0757   3.7115
     6.3533   9.5512  12.8564  13.0840

          k = 0.0625 0.5625 0.6875 (  1814 PWs)   bands (ev):

    -9.0524  -9.0309  -9.0208  -8.9901  -8.9812  -0.9387   1.7137   3.4309
     5.7684   9.5265  12.6658  13.9266

          k = 0.0625 0.5625 0.8125 (  1818 PWs)   bands (ev):

    -9.0541  -9.0303  -9.0157  -8.9939  -8.9792  -0.5239   1.4720   3.3614
     4.9432  10.0280  12.3941  13.1993

          k = 0.0625 0.6875 0.6875 (  1816 PWs)   bands (ev):

    -9.0560  -9.0261  -9.0194  -8.9933  -8.9792  -0.6315   1.4657   3.2659
     5.7232   8.8465  12.9385  14.1252

          k = 0.0625 0.6875 0.8125 (  1813 PWs)   bands (ev):

    -9.0593  -9.0239  -9.0156  -8.9969  -8.9768  -0.4174   1.3341   3.3748
     5.2118   8.9219  11.7111  14.1231

          k = 0.0625 0.8125 0.8125 (  1817 PWs)   bands (ev):

    -9.0644  -9.0182  -9.0147  -9.0004  -8.9742  -0.3874   1.2444   3.6803
     5.2643   8.3328  10.4834  15.5972

          k = 0.1875 0.1875 0.1875 (  1835 PWs)   bands (ev):

    -9.0488  -9.0422  -9.0422  -8.9851  -8.9851  -3.4330   5.2335   7.5761
     7.5762  10.1237  11.1461  11.1466

          k = 0.1875 0.1875 0.3125 (  1826 PWs)   bands (ev):

    -9.0504  -9.0398  -9.0386  -8.9868  -8.9829  -3.1707   4.4506   7.0242
     7.3054  10.2353  10.9327  11.7402

          k = 0.1875 0.1875 0.4375 (  1832 PWs)   bands (ev):

    -9.0536  -9.0354  -9.0337  -8.9894  -8.9802  -2.7822   3.7372   6.4815
     6.4956   9.8805  11.5944  12.3872

          k = 0.1875 0.1875 0.5625 (  1828 PWs)   bands (ev):

    -9.0572  -9.0301  -9.0280  -8.9926  -8.9777  -2.2753   3.0908   5.5526
     6.0116   9.3147  11.4737  13.0826

          k = 0.1875 0.1875 0.6875 (  1817 PWs)   bands (ev):

    -9.0605  -9.0249  -9.0222  -8.9959  -8.9758  -1.6656   2.4735   4.6734
     5.6436   8.8343  10.9665  13.8551

          k = 0.1875 0.1875 0.8125 (  1811 PWs)   bands (ev):

    -9.0630  -9.0206  -9.0174  -8.9987  -8.9747  -0.9905   1.8329   4.0157
     5.3919   8.5014  10.6413  14.7081

          k = 0.1875 0.3125 0.3125 (  1834 PWs)   bands (ev):

    -9.0504  -9.0383  -9.0373  -8.9859  -8.9829  -2.9146   3.6951   6.6045
     7.4581  10.1622  11.1059  11.4313

          k = 0.1875 0.3125 0.4375 (  1832 PWs)   bands (ev):

    -9.0518  -9.0356  -9.0339  -8.9872  -8.9811  -2.5377   3.0272   6.0158
     7.0065  10.2990  10.9734  11.8969

          k = 0.1875 0.3125 0.5625 (  1823 PWs)   bands (ev):

    -9.0541  -9.0324  -9.0287  -8.9897  -8.9790  -2.0519   2.4632   5.3665
     6.2844   9.8578  11.5262  12.6180

          k = 0.1875 0.3125 0.6875 (  1815 PWs)   bands (ev):

    -9.0564  -9.0290  -9.0231  -8.9926  -8.9776  -1.4817   2.0000   4.6010
     5.7099   9.3998  12.0206  12.4821

          k = 0.1875 0.3125 0.8125 (  1818 PWs)   bands (ev):

    -9.0583  -9.0258  -9.0183  -8.9953  -8.9770  -0.8841   1.6192   3.8494
     5.3698   9.0819  11.8412  13.2311

          k = 0.1875 0.4375 0.4375 (  1825 PWs)   bands (ev):

    -9.0509  -9.0343  -9.0332  -8.9853  -8.9821  -2.1830   2.4091   5.4864
     7.0418  10.2936  11.3522  11.3948

          k = 0.1875 0.4375 0.5625 (  1817 PWs)   bands (ev):

    -9.0515  -9.0336  -9.0288  -8.9864  -8.9813  -1.7386   1.9195   4.9612
     6.5106  10.3615  10.9027  12.4747

          k = 0.1875 0.4375 0.6875 (  1810 PWs)   bands (ev):

    -9.0526  -9.0326  -9.0234  -8.9893  -8.9800  -1.2476   1.5872   4.4272
     5.7704  10.4014  10.9492  13.5331

          k = 0.1875 0.4375 0.8125 (  1815 PWs)   bands (ev):

    -9.0536  -9.0313  -9.0186  -8.9921  -8.9793  -0.7974   1.4448   3.8426
     5.2055  10.1607  11.6244  13.3185

          k = 0.1875 0.5625 0.5625 (  1816 PWs)   bands (ev):

    -9.0512  -9.0325  -9.0274  -8.9851  -8.9828  -1.3737   1.5296   4.5393
     6.4289   9.6880  12.1226  12.1633

          k = 0.1875 0.5625 0.6875 (  1816 PWs)   bands (ev):

    -9.0524  -9.0317  -9.0232  -8.9887  -8.9807  -1.0295   1.3583   4.1640
     5.8974   9.6745  11.8422  13.5102

          k = 0.1875 0.6875 0.6875 (  1821 PWs)   bands (ev):

    -9.0554  -9.0278  -9.0219  -8.9918  -8.9788  -0.9056   1.3876   3.9369
     5.8354   9.0152  12.9388  13.3106

          k = 0.3125 0.3125 0.3125 (  1841 PWs)   bands (ev):

    -9.0510  -9.0368  -9.0368  -8.9836  -8.9836  -2.6678   2.9549   7.1254
     7.1255   9.7149  11.1901  11.1904

          k = 0.3125 0.3125 0.4375 (  1836 PWs)   bands (ev):

    -9.0519  -9.0354  -9.0341  -8.9850  -8.9812  -2.3093   2.3220   6.7364
     6.7959   9.9344  10.8470  11.4683

          k = 0.3125 0.3125 0.5625 (  1821 PWs)   bands (ev):

    -9.0530  -9.0332  -9.0303  -8.9870  -8.9795  -1.8593   1.8278   5.9094
     6.3627   9.7866  11.3135  11.9285

          k = 0.3125 0.3125 0.6875 (  1811 PWs)   bands (ev):

    -9.0543  -9.0304  -9.0259  -8.9894  -8.9787  -1.3613   1.5026   4.8906
     6.0534   9.3443  12.2670  12.5508

          k = 0.3125 0.4375 0.4375 (  1827 PWs)   bands (ev):

    -9.0520  -9.0341  -9.0339  -8.9832  -8.9816  -1.9881   1.7419   6.3941
     6.9937   9.8778  11.0204  11.0326

          k = 0.3125 0.4375 0.5625 (  1819 PWs)   bands (ev):

    -9.0522  -9.0336  -9.0310  -8.9842  -8.9807  -1.6132   1.3424   5.8640
     6.6061  10.1611  10.6609  11.6416

          k = 0.3125 0.4375 0.6875 (  1815 PWs)   bands (ev):

    -9.0523  -9.0328  -9.0271  -8.9864  -8.9803  -1.2613   1.1940   5.0746
     6.1676   9.9546  11.0876  12.5351

          k = 0.3125 0.5625 0.5625 (  1824 PWs)   bands (ev):

    -9.0520  -9.0331  -9.0302  -8.9836  -8.9814  -1.3850   1.1033   5.5439
     6.5661   9.8987  11.1935  11.5368

          k = 0.4375 0.4375 0.4375 (  1823 PWs)   bands (ev):

    -9.0527  -9.0338  -9.0338  -8.9815  -8.9815  -1.7389   1.2418   6.8887
     6.8891   9.5019  10.9281  10.9282

          k = 0.4375 0.4375 0.5625 (  1819 PWs)   bands (ev):

    -9.0526  -9.0335  -9.0325  -8.9822  -8.9809  -1.5083   1.0002   6.4703
     6.7335   9.7970  10.7702  11.1066

     the Fermi energy is     5.5225 ev

!    total energy              =    -317.34929862 Ry
     total all-electron energy =     -4373.656740 Ry
     estimated scf accuracy    <       0.00000082 Ry
     smearing contrib. (-TS)   =      -0.00133044 Ry
     internal energy E=F+TS    =    -317.34796818 Ry

     The total energy is F=E-TS. E is the sum of the following terms:
     one-electron contribution =    -124.50857957 Ry
     hartree contribution      =      75.74157923 Ry
     xc contribution           =     -40.61470995 Ry
     ewald contribution        =     -82.24853884 Ry
     one-center paw contrib.   =    -145.71771905 Ry

     convergence has been achieved in  12 iterations

     Forces acting on atoms (cartesian axes, Ry/au):

     atom    1 type  2   force =     0.00000000    0.00000000    0.00000000
     atom    2 type  1   force =    -0.00000000    0.00000000    0.00000000

     Total force =     0.000000     Total SCF correction =     0.000000


     Computing stress (Cartesian axis) and pressure

          total   stress  (Ry/bohr**3)                   (kbar)     P=       70.40
   0.00047859  -0.00000000   0.00000000           70.40       -0.00        0.00
  -0.00000000   0.00047859   0.00000000           -0.00       70.40        0.00
   0.00000000  -0.00000000   0.00047859            0.00       -0.00       70.40


     Writing all to output data dir /home/nico-sachs/source/q-e/tempdir/al.save/ :
     XML data file, charge density, pseudopotentials, collected wavefunctions

     init_run     :      1.62s CPU      1.69s WALL (       1 calls)
     electrons    :     44.57s CPU     45.15s WALL (       1 calls)
     forces       :      0.40s CPU      0.40s WALL (       1 calls)
     stress       :      1.83s CPU      1.83s WALL (       1 calls)

     Called by init_run:
     wfcinit      :      0.75s CPU      0.75s WALL (       1 calls)
     potinit      :      0.34s CPU      0.38s WALL (       1 calls)
     hinit0       :      0.47s CPU      0.47s WALL (       1 calls)

     Called by electrons:
     c_bands      :     36.96s CPU     37.53s WALL (      13 calls)
     sum_band     :      3.39s CPU      3.41s WALL (      13 calls)
     v_of_rho     :      0.10s CPU      0.10s WALL (      13 calls)
     newd         :      0.58s CPU      0.60s WALL (      13 calls)
     PAW_pot      :      3.87s CPU      3.91s WALL (      13 calls)
     mix_rho      :      0.01s CPU      0.01s WALL (      13 calls)

     Called by c_bands:
     init_us_2    :      0.80s CPU      0.81s WALL (    1740 calls)
     ccgdiagg     :     30.94s CPU     31.46s WALL (     780 calls)
     wfcrot       :      6.26s CPU      6.30s WALL (     720 calls)

     Called by *cgdiagg:
     h_psi        :     21.97s CPU     22.29s WALL (   32615 calls)
     s_psi        :      7.14s CPU      7.26s WALL (   64510 calls)

     Called by h_psi:
     h_psi:calbec :      5.06s CPU      5.14s WALL (   32615 calls)
     vloc_psi     :     12.67s CPU     12.86s WALL (   32615 calls)
                                        0.00s GPU  (   32615 calls)
     add_vuspsi   :      4.01s CPU      4.07s WALL (   32615 calls)
     hs_1psi      :     20.81s CPU     21.16s WALL (   31895 calls)
     s_1psi       :      7.51s CPU      7.63s WALL (   31895 calls)

     General routines
     calbec       :     11.25s CPU     11.41s WALL (   66310 calls)
     fft          :      0.15s CPU      0.15s WALL (     169 calls)
     ffts         :      0.00s CPU      0.00s WALL (      13 calls)
     fftw         :     11.92s CPU     12.09s WALL (   90550 calls)

     Parallel routines

     PWSCF        :     48.61s CPU     49.32s WALL


   This run was terminated on:  16:18:18  26Jan2026            

=------------------------------------------------------------------------------=
   JOB DONE.
=------------------------------------------------------------------------------=
