
     Program PWSCF v.7.5 starts on 27Jan2026 at 14:19:26 

     This program is part of the open-source Quantum ESPRESSO suite
     for quantum simulation of materials; please cite
         "P. Giannozzi et al., J. Phys.:Condens. Matter 21 395502 (2009);
         "P. Giannozzi et al., J. Phys.:Condens. Matter 29 465901 (2017);
         "P. Giannozzi et al., J. Chem. Phys. 152 154105 (2020);
          URL http://www.quantum-espresso.org", 
     in publications or presentations arising from this work. More details at
     http://www.quantum-espresso.org/quote

     Parallel version (MPI), running on     4 processors

     MPI processes distributed on     1 nodes
     24682 MiB available memory on the printing compute node when the environment starts

     Waiting for input...
     Reading input from standard input

     Current dimensions of program PWSCF are:
     Max number of different atomic species (ntypx) = 10
     Max number of k-points (npk) =  40000
     Max angular momentum in pseudopotentials (lmaxx) =  4
     file Ga.pbe-dn-kjpaw_psl.1.0.0.UPF: wavefunction(s)  4S renormalized
     Message from routine set_cutoff:
     ecutrho < 4*ecutwfc, are you sure?

     R & G space division:  proc/nbgrp/npool/nimage =       4
     Subspace diagonalization in iterative solution of the eigenvalue problem:
     a serial algorithm will be used


     Parallelization info
     --------------------
     sticks:   dense  smooth     PW     G-vecs:    dense   smooth      PW
     Min         183     183     63                 6399     6399    1397
     Max         184     184     64                 6402     6402    1406
     Sum         733     733    253                25601    25601    5599

     Using Slab Decomposition



     bravais-lattice index     =            4
     lattice parameter (alat)  =       6.0263  a.u.
     unit-cell volume          =     308.1662 (a.u.)^3
     number of atoms/cell      =            4
     number of atomic types    =            2
     number of electrons       =        36.00
     number of Kohn-Sham states=           18
     kinetic-energy cutoff     =      90.0000  Ry
     charge density cutoff     =     288.8889  Ry
     scf convergence threshold =      1.0E-06
     mixing beta               =       0.7000
     number of iterations used =            8  plain     mixing
     Exchange-correlation= PBE
                           (   1   4   3   4   0   0   0)

     celldm(1)=   6.026337  celldm(2)=   0.000000  celldm(3)=   1.625902
     celldm(4)=   0.000000  celldm(5)=   0.000000  celldm(6)=   0.000000

     crystal axes: (cart. coord. in units of alat)
               a(1) = (   1.000000   0.000000   0.000000 )  
               a(2) = (  -0.500000   0.866025   0.000000 )  
               a(3) = (   0.000000   0.000000   1.625902 )  

     reciprocal axes: (cart. coord. in units 2 pi/alat)
               b(1) = (  1.000000  0.577350 -0.000000 )  
               b(2) = (  0.000000  1.154701  0.000000 )  
               b(3) = (  0.000000 -0.000000  0.615043 )  


     PseudoPot. # 1 for Ga read from file:
     /home/nico-sachs/source/q-e/SSSP_1.3.0_PBE_efficiency/Ga.pbe-dn-kjpaw_psl.1.0.0.UPF
     MD5 check sum: a27b4342b1af7e5f338de752e9ed7044
     Pseudo is Projector augmented-wave + core cor, Zval = 13.0
     Generated using "atomic" code by A. Dal Corso  v.5.1
     Shape of augmentation charge: PSQ
     Using radial grid of 1205 points,  6 beta functions with: 
                l(1) =   0
                l(2) =   0
                l(3) =   1
                l(4) =   1
                l(5) =   2
                l(6) =   2
     Q(r) pseudized with 0 coefficients 


     PseudoPot. # 2 for N  read from file:
     /home/nico-sachs/source/q-e/SSSP_1.3.0_PBE_efficiency/N.pbe-n-radius_5.UPF
     MD5 check sum: 16739722b17309cd8fe442a2ace49922
     Pseudo is Ultrasoft + core correction, Zval =  5.0
     Generated using "atomic" code by A. Dal Corso  v.5.1
     Using radial grid of 1085 points,  4 beta functions with: 
                l(1) =   0
                l(2) =   0
                l(3) =   1
                l(4) =   1
     Q(r) pseudized with 0 coefficients 


     atomic species   valence    mass     pseudopotential
     Ga               13.00    69.72300     Ga( 1.00)
     N                 5.00    14.00700     N ( 1.00)

     12 Sym. Ops. (no inversion) found ( 6 have fractional translation)



   Cartesian axes

     site n.     atom                  positions (alat units)
         1        Ga     tau(   1) = (  -0.0000000   0.5773503   0.0000000  )
         2        Ga     tau(   2) = (   0.5000000   0.2886751   0.8129508  )
         3        N      tau(   3) = (  -0.0000000   0.5773503   0.6097131  )
         4        N      tau(   4) = (   0.5000000   0.2886751   1.4226638  )

     number of k points=    21
                       cart. coord. in units 2pi/alat
        k(    1) = (   0.0000000   0.0000000   0.0000000), wk =   0.0138889
        k(    2) = (   0.0000000   0.0000000   0.1537608), wk =   0.0277778
        k(    3) = (   0.0000000   0.0000000  -0.3075217), wk =   0.0138889
        k(    4) = (   0.0000000   0.1924501   0.0000000), wk =   0.0833333
        k(    5) = (   0.0000000   0.1924501   0.1537608), wk =   0.1666667
        k(    6) = (   0.0000000   0.1924501  -0.3075217), wk =   0.0833333
        k(    7) = (   0.0000000   0.3849002   0.0000000), wk =   0.0833333
        k(    8) = (   0.0000000   0.3849002   0.1537608), wk =   0.1666667
        k(    9) = (   0.0000000   0.3849002  -0.3075217), wk =   0.0833333
        k(   10) = (   0.0000000  -0.5773503   0.0000000), wk =   0.0416667
        k(   11) = (   0.0000000  -0.5773503   0.1537608), wk =   0.0833333
        k(   12) = (   0.0000000  -0.5773503  -0.3075217), wk =   0.0416667
        k(   13) = (   0.1666667   0.2886751   0.0000000), wk =   0.0833333
        k(   14) = (   0.1666667   0.2886751   0.1537608), wk =   0.1666667
        k(   15) = (   0.1666667   0.2886751  -0.3075217), wk =   0.0833333
        k(   16) = (   0.1666667   0.4811252   0.0000000), wk =   0.1666667
        k(   17) = (   0.1666667   0.4811252   0.1537608), wk =   0.3333333
        k(   18) = (   0.1666667   0.4811252  -0.3075217), wk =   0.1666667
        k(   19) = (   0.3333333   0.5773503   0.0000000), wk =   0.0277778
        k(   20) = (   0.3333333   0.5773503   0.1537608), wk =   0.0555556
        k(   21) = (   0.3333333   0.5773503  -0.3075217), wk =   0.0277778

     Dense  grid:    25601 G-vectors     FFT dimensions: (  36,  36,  54)

     Estimated max dynamical RAM per process >      34.05 MB

     Estimated total dynamical RAM >     136.22 MB

     Check: negative core charge=   -0.000002

     Initial potential from superposition of free atoms

     starting charge      35.9941, renormalised to      36.0000
     Starting wfcs are   26 randomized atomic wfcs
     Checking if some PAW data can be deallocated... 

     total cpu time spent up to now is        1.4 secs

     Self-consistent Calculation

     iteration #  1     ecut=    90.00 Ry     beta= 0.70
     CG style diagonalization
     ethr =  1.00E-02,  avg # of iterations =  2.0

     total cpu time spent up to now is        2.9 secs

     total energy              =    -595.58042914 Ry
     estimated scf accuracy    <       1.11375676 Ry

     iteration #  2     ecut=    90.00 Ry     beta= 0.70
     CG style diagonalization
     ethr =  3.09E-03,  avg # of iterations =  4.8

     total cpu time spent up to now is        5.7 secs

     total energy              =    -596.02825218 Ry
     estimated scf accuracy    <       1.07648618 Ry

     iteration #  3     ecut=    90.00 Ry     beta= 0.70
     CG style diagonalization
     ethr =  2.99E-03,  avg # of iterations =  3.8

     total cpu time spent up to now is        8.1 secs

     total energy              =    -596.21461431 Ry
     estimated scf accuracy    <       0.00934514 Ry

     iteration #  4     ecut=    90.00 Ry     beta= 0.70
     CG style diagonalization
     c_bands:  1 eigenvalues not converged
     c_bands:  1 eigenvalues not converged
     c_bands:  1 eigenvalues not converged
     c_bands:  2 eigenvalues not converged
     c_bands:  1 eigenvalues not converged
     c_bands:  1 eigenvalues not converged
     c_bands:  1 eigenvalues not converged
     c_bands:  1 eigenvalues not converged
     c_bands:  1 eigenvalues not converged
     c_bands:  1 eigenvalues not converged
     ethr =  2.60E-05,  avg # of iterations =  9.9

     total cpu time spent up to now is       14.6 secs

     total energy              =    -596.35950660 Ry
     estimated scf accuracy    <       0.03327734 Ry

     iteration #  5     ecut=    90.00 Ry     beta= 0.70
     CG style diagonalization
     ethr =  2.60E-05,  avg # of iterations =  4.1

     total cpu time spent up to now is       17.6 secs

     total energy              =    -596.36455285 Ry
     estimated scf accuracy    <       0.05013680 Ry

     iteration #  6     ecut=    90.00 Ry     beta= 0.70
     CG style diagonalization
     ethr =  2.60E-05,  avg # of iterations =  5.1

     total cpu time spent up to now is       21.0 secs

     total energy              =    -596.36714324 Ry
     estimated scf accuracy    <       0.12871960 Ry

     iteration #  7     ecut=    90.00 Ry     beta= 0.70
     CG style diagonalization
     ethr =  2.60E-05,  avg # of iterations =  3.8

     total cpu time spent up to now is       23.7 secs

     total energy              =    -596.36878690 Ry
     estimated scf accuracy    <       0.02520645 Ry

     iteration #  8     ecut=    90.00 Ry     beta= 0.70
     CG style diagonalization
     ethr =  2.60E-05,  avg # of iterations =  3.1

     total cpu time spent up to now is       25.8 secs

     total energy              =    -596.37130388 Ry
     estimated scf accuracy    <       0.01997389 Ry

     iteration #  9     ecut=    90.00 Ry     beta= 0.70
     CG style diagonalization
     ethr =  2.60E-05,  avg # of iterations =  3.0

     total cpu time spent up to now is       28.0 secs

     total energy              =    -596.36692334 Ry
     estimated scf accuracy    <       0.03996781 Ry

     iteration # 10     ecut=    90.00 Ry     beta= 0.70
     CG style diagonalization
     ethr =  2.60E-05,  avg # of iterations =  3.4

     total cpu time spent up to now is       30.4 secs

     total energy              =    -596.36854925 Ry
     estimated scf accuracy    <       0.00002093 Ry

     iteration # 11     ecut=    90.00 Ry     beta= 0.70
     CG style diagonalization
     c_bands:  4 eigenvalues not converged
     c_bands:  4 eigenvalues not converged
     c_bands:  1 eigenvalues not converged
     c_bands:  4 eigenvalues not converged
     c_bands:  3 eigenvalues not converged
     c_bands:  3 eigenvalues not converged
     c_bands:  5 eigenvalues not converged
     c_bands:  4 eigenvalues not converged
     c_bands:  5 eigenvalues not converged
     c_bands:  4 eigenvalues not converged
     c_bands:  3 eigenvalues not converged
     c_bands:  4 eigenvalues not converged
     ethr =  5.82E-08,  avg # of iterations = 19.3

     total cpu time spent up to now is       42.3 secs

     total energy              =    -596.36928122 Ry
     estimated scf accuracy    <       0.01294510 Ry

     iteration # 12     ecut=    90.00 Ry     beta= 0.70
     CG style diagonalization
     c_bands:  1 eigenvalues not converged
     c_bands:  1 eigenvalues not converged
     ethr =  5.82E-08,  avg # of iterations = 10.0

     total cpu time spent up to now is       48.6 secs

     total energy              =    -596.36902710 Ry
     estimated scf accuracy    <       0.00263649 Ry

     iteration # 13     ecut=    90.00 Ry     beta= 0.70
     CG style diagonalization
     c_bands:  1 eigenvalues not converged
     c_bands:  3 eigenvalues not converged
     c_bands:  3 eigenvalues not converged
     c_bands:  3 eigenvalues not converged
     c_bands:  2 eigenvalues not converged
     c_bands:  2 eigenvalues not converged
     c_bands:  3 eigenvalues not converged
     c_bands:  4 eigenvalues not converged
     c_bands:  4 eigenvalues not converged
     c_bands:  1 eigenvalues not converged
     c_bands:  2 eigenvalues not converged
     c_bands:  1 eigenvalues not converged
     c_bands:  2 eigenvalues not converged
     c_bands:  2 eigenvalues not converged
     c_bands:  4 eigenvalues not converged
     c_bands:  2 eigenvalues not converged
     c_bands:  1 eigenvalues not converged
     c_bands:  3 eigenvalues not converged
     c_bands:  3 eigenvalues not converged
     ethr =  5.82E-08,  avg # of iterations = 15.8

     total cpu time spent up to now is       58.3 secs

     total energy              =    -596.36959387 Ry
     estimated scf accuracy    <       0.00155331 Ry

     iteration # 14     ecut=    90.00 Ry     beta= 0.70
     CG style diagonalization
     ethr =  5.82E-08,  avg # of iterations =  5.5

     total cpu time spent up to now is       61.9 secs

     total energy              =    -596.36952263 Ry
     estimated scf accuracy    <       0.00114127 Ry

     iteration # 15     ecut=    90.00 Ry     beta= 0.70
     CG style diagonalization
     ethr =  5.82E-08,  avg # of iterations =  4.0

     total cpu time spent up to now is       64.7 secs

     total energy              =    -596.36950330 Ry
     estimated scf accuracy    <       0.00092447 Ry

     iteration # 16     ecut=    90.00 Ry     beta= 0.70
     CG style diagonalization
     ethr =  5.82E-08,  avg # of iterations =  3.2

     total cpu time spent up to now is       66.9 secs

     total energy              =    -596.36938284 Ry
     estimated scf accuracy    <       0.00085448 Ry

     iteration # 17     ecut=    90.00 Ry     beta= 0.70
     CG style diagonalization
     ethr =  5.82E-08,  avg # of iterations =  5.0

     total cpu time spent up to now is       70.1 secs

     total energy              =    -596.36940585 Ry
     estimated scf accuracy    <       0.00037953 Ry

     iteration # 18     ecut=    90.00 Ry     beta= 0.70
     CG style diagonalization
     ethr =  5.82E-08,  avg # of iterations =  3.9

     total cpu time spent up to now is       72.4 secs

     total energy              =    -596.36929248 Ry
     estimated scf accuracy    <       0.00038673 Ry

     iteration # 19     ecut=    90.00 Ry     beta= 0.70
     CG style diagonalization
     c_bands:  1 eigenvalues not converged
     ethr =  5.82E-08,  avg # of iterations =  7.4

     total cpu time spent up to now is       76.5 secs

     total energy              =    -596.36935283 Ry
     estimated scf accuracy    <       0.00000488 Ry

     iteration # 20     ecut=    90.00 Ry     beta= 0.70
     CG style diagonalization
     c_bands:  1 eigenvalues not converged
     c_bands:  1 eigenvalues not converged
     c_bands:  1 eigenvalues not converged
     ethr =  1.36E-08,  avg # of iterations =  9.1

     total cpu time spent up to now is       81.8 secs

     total energy              =    -596.36937539 Ry
     estimated scf accuracy    <       0.00001417 Ry

     iteration # 21     ecut=    90.00 Ry     beta= 0.70
     CG style diagonalization
     ethr =  1.36E-08,  avg # of iterations =  4.5

     total cpu time spent up to now is       84.4 secs

     End of self-consistent calculation

          k = 0.0000 0.0000 0.0000 (  4427 PWs)   bands (ev):

    -6.2581  -5.3488  -3.7561  -3.7352  -3.7351  -3.6732  -3.6732  -3.4872
    -3.4872  -3.3878  -3.3878  -2.1327   2.6390   8.6799   8.6799   9.6653
     9.7276   9.7276

          k = 0.0000 0.0000 0.1538 (  4422 PWs)   bands (ev):

    -6.0824  -5.4215  -3.7314  -3.7314  -3.6990  -3.6872  -3.6872  -3.4677
    -3.4676  -3.3978  -3.3978  -2.6845   3.6937   8.1720   8.8266   8.8266
     9.5674   9.5674

          k = 0.0000 0.0000-0.3075 (  4386 PWs)   bands (ev):

    -5.6964  -5.6964  -3.7143  -3.7143  -3.7143  -3.7143  -3.4282  -3.4282
    -3.4282  -3.4281  -3.4027  -3.4027   5.8642   5.8642   9.1902   9.1902
     9.1902   9.1902

          k = 0.0000 0.1925 0.0000 (  4448 PWs)   bands (ev):

    -6.0064  -5.2906  -3.7231  -3.7015  -3.6587  -3.6237  -3.6227  -3.5083
    -3.4858  -3.4240  -3.3823  -1.9482   3.0234   7.0035   8.0064   8.1729
     9.3780   9.4908

          k = 0.0000 0.1925 0.1538 (  4432 PWs)   bands (ev):

    -5.8556  -5.3401  -3.7137  -3.6937  -3.6649  -3.6377  -3.5993  -3.4708
    -3.4677  -3.4247  -3.3947  -2.4614   3.9356   7.1196   7.4500   8.3497
     9.0125   9.2791

          k = 0.0000 0.1925-0.3075 (  4420 PWs)   bands (ev):

    -5.5427  -5.5427  -3.6891  -3.6891  -3.6692  -3.6692  -3.5121  -3.5121
    -3.4284  -3.4284  -3.1632  -3.1632   5.7001   5.7001   8.0840   8.0840
     8.7971   8.7971

          k = 0.0000 0.3849 0.0000 (  4436 PWs)   bands (ev):

    -5.5458  -5.2123  -3.6858  -3.6666  -3.5887  -3.5255  -3.5236  -3.4898
    -3.4411  -3.3713  -3.0703  -1.5861   3.7570   4.8356   5.8339   7.3424
     8.4347   8.9924

          k = 0.0000 0.3849 0.1538 (  4440 PWs)   bands (ev):

    -5.4610  -5.2257  -3.6933  -3.6446  -3.6207  -3.5420  -3.5250  -3.4731
    -3.4339  -3.3852  -2.9538  -1.9418   3.7687   5.0302   6.0373   7.5554
     8.5368   8.7146

          k = 0.0000 0.3849-0.3075 (  4454 PWs)   bands (ev):

    -5.3059  -5.3059  -3.6771  -3.6771  -3.5917  -3.5917  -3.4911  -3.4911
    -3.4127  -3.4127  -2.5598  -2.5598   4.2530   4.2530   7.6328   7.6328
     8.1036   8.1036

          k = 0.0000-0.5774 0.0000 (  4474 PWs)   bands (ev):

    -5.3665  -5.1913  -3.6889  -3.6649  -3.5707  -3.5272  -3.4793  -3.4730
    -3.3974  -3.3624  -2.2487  -1.7094   3.2801   4.4595   5.4927   6.9807
     7.4904   8.7486

          k = 0.0000-0.5774 0.1538 (  4456 PWs)   bands (ev):

    -5.3154  -5.1915  -3.7014  -3.6359  -3.6132  -3.5301  -3.5012  -3.4327
    -3.3960  -3.3748  -2.1932  -1.8047   3.0125   3.8648   6.4158   7.2067
     8.0193   8.4471

          k = 0.0000-0.5774-0.3075 (  4452 PWs)   bands (ev):

    -5.2272  -5.2272  -3.6910  -3.6910  -3.5659  -3.5659  -3.4567  -3.4567
    -3.3900  -3.3900  -2.0220  -2.0220   3.1294   3.1294   7.7905   7.7905
     7.8167   7.8167

          k = 0.1667 0.2887 0.0000 (  4443 PWs)   bands (ev):

    -5.6499  -5.2275  -3.6905  -3.6677  -3.5993  -3.5753  -3.5272  -3.4663
    -3.4555  -3.4095  -3.2499  -1.6536   3.6607   5.6792   6.0567   7.3258
     8.7176   8.8026

          k = 0.1667 0.2887 0.1538 (  4445 PWs)   bands (ev):

    -5.5472  -5.2481  -3.6731  -3.6700  -3.6136  -3.6001  -3.5061  -3.5002
    -3.4327  -3.4166  -3.1425  -2.0730   4.0815   5.7198   6.3000   7.2878
     8.4089   8.7924

          k = 0.1667 0.2887-0.3075 (  4448 PWs)   bands (ev):

    -5.3541  -5.3541  -3.6530  -3.6530  -3.6257  -3.6257  -3.5220  -3.5220
    -3.4179  -3.4179  -2.7486  -2.7486   4.8886   4.8886   7.6073   7.6073
     7.9175   7.9175

          k = 0.1667 0.4811 0.0000 (  4446 PWs)   bands (ev):

    -5.3557  -5.1964  -3.7117  -3.6292  -3.5413  -3.5263  -3.5050  -3.4847
    -3.4230  -3.3890  -2.4121  -1.5009   3.7178   4.6727   5.5248   6.0990
     7.6993   7.9669

          k = 0.1667 0.4811 0.1538 (  4450 PWs)   bands (ev):

    -5.3056  -5.1937  -3.6813  -3.6463  -3.5921  -3.5279  -3.5060  -3.4638
    -3.4155  -3.4055  -2.3181  -1.6727   3.4531   4.2403   5.9667   6.7340
     7.5285   8.2201

          k = 0.1667 0.4811-0.3075 (  4450 PWs)   bands (ev):

    -5.2224  -5.2224  -3.6559  -3.6559  -3.5858  -3.5858  -3.4841  -3.4841
    -3.4080  -3.4080  -2.0362  -2.0362   3.5826   3.5826   6.6769   6.6769
     8.0619   8.0619

          k = 0.3333 0.5774 0.0000 (  4449 PWs)   bands (ev):

    -5.2322  -5.2322  -3.7407  -3.5336  -3.5336  -3.5152  -3.5015  -3.5015
    -3.4545  -3.4072  -1.7145  -1.7145   4.3964   4.3964   4.4467   6.7178
     6.7178   7.0354

          k = 0.3333 0.5774 0.1538 (  4449 PWs)   bands (ev):

    -5.2096  -5.2096  -3.7005  -3.5871  -3.5871  -3.5241  -3.4608  -3.4608
    -3.4589  -3.4431  -1.7088  -1.7088   3.9087   3.9087   4.7451   6.5297
     7.5207   7.5207

          k = 0.3333 0.5774-0.3075 (  4494 PWs)   bands (ev):

    -5.1864  -5.1864  -3.6195  -3.6195  -3.6016  -3.6016  -3.4662  -3.4662
    -3.4417  -3.4417  -1.7030  -1.7030   3.5652   3.5652   5.5450   5.5450
     8.2351   8.2351

     highest occupied level (ev):     9.7276

!    total energy              =    -596.36937765 Ry
     estimated scf accuracy    <       0.00000077 Ry

     The total energy is the sum of the following terms:
     one-electron contribution =    -181.37584031 Ry
     hartree contribution      =     130.14976535 Ry
     xc contribution           =     -87.87965340 Ry
     ewald contribution        =    -233.28276133 Ry
     one-center paw contrib.   =    -223.98088796 Ry

     convergence has been achieved in  21 iterations

     Forces acting on atoms (cartesian axes, Ry/au):

     atom    1 type  1   force =     0.00000000    0.00000000   -0.00485893
     atom    2 type  1   force =     0.00000000    0.00000000   -0.00485893
     atom    3 type  2   force =     0.00000000    0.00000000    0.00485893
     atom    4 type  2   force =    -0.00000000   -0.00000000    0.00485893

     Total force =     0.009718     Total SCF correction =     0.000091


     Computing stress (Cartesian axis) and pressure

          total   stress  (Ry/bohr**3)                   (kbar)     P=       53.97
   0.00032812   0.00000000   0.00000000           48.27        0.00        0.00
   0.00000000   0.00032812   0.00000000            0.00       48.27        0.00
   0.00000000   0.00000000   0.00044449            0.00        0.00       65.39


     Writing all to output data dir /home/nico-sachs/source/q-e/tempdir/gan.save/ :
     XML data file, charge density, pseudopotentials, collected wavefunctions

     init_run     :      1.20s CPU      1.26s WALL (       1 calls)
     electrons    :     80.31s CPU     82.98s WALL (       1 calls)
     forces       :      0.26s CPU      0.27s WALL (       1 calls)
     stress       :      1.12s CPU      1.12s WALL (       1 calls)

     Called by init_run:
     wfcinit      :      0.58s CPU      0.60s WALL (       1 calls)
     potinit      :      0.25s CPU      0.29s WALL (       1 calls)
     hinit0       :      0.31s CPU      0.31s WALL (       1 calls)

     Called by electrons:
     c_bands      :     70.35s CPU     72.88s WALL (      21 calls)
     sum_band     :      3.83s CPU      3.96s WALL (      21 calls)
     v_of_rho     :      0.19s CPU      0.19s WALL (      22 calls)
     newd         :      0.61s CPU      0.62s WALL (      22 calls)
     PAW_pot      :      5.53s CPU      5.57s WALL (      22 calls)
     mix_rho      :      0.04s CPU      0.04s WALL (      21 calls)

     Called by c_bands:
     init_us_2    :      0.47s CPU      0.48s WALL (     945 calls)
     ccgdiagg     :     61.90s CPU     64.17s WALL (     452 calls)
     wfcrot       :      8.62s CPU      8.88s WALL (     452 calls)

     Called by *cgdiagg:
     h_psi        :     40.04s CPU     41.67s WALL (   41944 calls)
     s_psi        :     12.53s CPU     12.97s WALL (   83436 calls)

     Called by h_psi:
     h_psi:calbec :      9.90s CPU     10.31s WALL (   41944 calls)
     vloc_psi     :     22.71s CPU     23.66s WALL (   41944 calls)
                                        0.00s GPU  (   41944 calls)
     add_vuspsi   :      7.00s CPU      7.26s WALL (   41944 calls)
     hs_1psi      :     40.20s CPU     41.86s WALL (   41492 calls)
     s_1psi       :     14.46s CPU     14.88s WALL (   41492 calls)

     General routines
     calbec       :     20.20s CPU     20.90s WALL (   84234 calls)
     fft          :      0.25s CPU      0.26s WALL (     267 calls)
     ffts         :      0.01s CPU      0.01s WALL (      21 calls)
     fftw         :     21.63s CPU     22.57s WALL (  107530 calls)

     Parallel routines

     PWSCF        :   1m23.07s CPU   1m25.85s WALL


   This run was terminated on:  14:20:51  27Jan2026            

=------------------------------------------------------------------------------=
   JOB DONE.
=------------------------------------------------------------------------------=
