
     Program PWSCF v.7.5 starts on 26Jan2026 at 16:22:20 

     This program is part of the open-source Quantum ESPRESSO suite
     for quantum simulation of materials; please cite
         "P. Giannozzi et al., J. Phys.:Condens. Matter 21 395502 (2009);
         "P. Giannozzi et al., J. Phys.:Condens. Matter 29 465901 (2017);
         "P. Giannozzi et al., J. Chem. Phys. 152 154105 (2020);
          URL http://www.quantum-espresso.org", 
     in publications or presentations arising from this work. More details at
     http://www.quantum-espresso.org/quote

     Parallel version (MPI), running on     1 processors

     MPI processes distributed on     1 nodes
     25090 MiB available memory on the printing compute node when the environment starts

     Waiting for input...
     Reading input from standard input

     Current dimensions of program PWSCF are:
     Max number of different atomic species (ntypx) = 10
     Max number of k-points (npk) =  40000
     Max angular momentum in pseudopotentials (lmaxx) =  4
     file Ga.pbe-dn-kjpaw_psl.1.0.0.UPF: wavefunction(s)  4S renormalized
     file Al.pbe-n-kjpaw_psl.1.0.0.UPF: wavefunction(s)  3S 3P renormalized
     Message from routine volume:
     axis vectors are left-handed
     Message from routine setup:
     using ibrav=0 with symmetry is DISCOURAGED, use correct ibrav instead

     Subspace diagonalization in iterative solution of the eigenvalue problem:
     a serial algorithm will be used


     G-vector sticks info
     --------------------
     sticks:   dense  smooth     PW     G-vecs:    dense   smooth      PW
     Sum         847     769    241                16049    14361    2421

     Using Slab Decomposition



     bravais-lattice index     =            0
     lattice parameter (alat)  =      10.6829  a.u.
     unit-cell volume          =     304.7984 (a.u.)^3
     number of atoms/cell      =            2
     number of atomic types    =            2
     number of electrons       =        16.00
     number of Kohn-Sham states=           12
     kinetic-energy cutoff     =      50.0000  Ry
     charge density cutoff     =     212.5000  Ry
     scf convergence threshold =      1.0E-06
     mixing beta               =       0.7000
     number of iterations used =            8  plain     mixing
     Exchange-correlation= SLA  PW   PBX  PBC
                           (   1   4   3   4   0   0   0)

     celldm(1)=  10.682943  celldm(2)=   0.000000  celldm(3)=   0.000000
     celldm(4)=   0.000000  celldm(5)=   0.000000  celldm(6)=   0.000000

     crystal axes: (cart. coord. in units of alat)
               a(1) = (   0.500000   0.500000   0.000000 )  
               a(2) = (   0.500000   0.000000   0.500000 )  
               a(3) = (   0.000000   0.500000   0.500000 )  

     reciprocal axes: (cart. coord. in units 2 pi/alat)
               b(1) = (  1.000000  1.000000 -1.000000 )  
               b(2) = (  1.000000 -1.000000  1.000000 )  
               b(3) = ( -1.000000  1.000000  1.000000 )  


     PseudoPot. # 1 for Ga read from file:
     /home/nico-sachs/source/q-e/SSSP_1.3.0_PBE_efficiency/Ga.pbe-dn-kjpaw_psl.1.0.0.UPF
     MD5 check sum: a27b4342b1af7e5f338de752e9ed7044
     Pseudo is Projector augmented-wave + core cor, Zval = 13.0
     Generated using "atomic" code by A. Dal Corso  v.5.1
     Shape of augmentation charge: PSQ
     Using radial grid of 1205 points,  6 beta functions with: 
                l(1) =   0
                l(2) =   0
                l(3) =   1
                l(4) =   1
                l(5) =   2
                l(6) =   2
     Q(r) pseudized with 0 coefficients 


     PseudoPot. # 2 for Al read from file:
     /home/nico-sachs/source/q-e/SSSP_1.3.0_PBE_efficiency/Al.pbe-n-kjpaw_psl.1.0.0.UPF
     MD5 check sum: cfc449ca30b5f3223ec38ddd88ac046d
     Pseudo is Projector augmented-wave + core cor, Zval =  3.0
     Generated using "atomic" code by A. Dal Corso  v.5.1
     Shape of augmentation charge: PSQ
     Using radial grid of 1135 points,  6 beta functions with: 
                l(1) =   0
                l(2) =   0
                l(3) =   1
                l(4) =   1
                l(5) =   2
                l(6) =   2
     Q(r) pseudized with 0 coefficients 


     atomic species   valence    mass     pseudopotential
     Ga               13.00    69.72300     Ga( 1.00)
     As                3.00    74.92100     Al( 1.00)

     24 Sym. Ops. (no inversion) found



   Cartesian axes

     site n.     atom                  positions (alat units)
         1        As     tau(   1) = (   0.2500000   0.2500000   0.2500000  )
         2        Ga     tau(   2) = (   0.0000000   0.0000000   0.0000000  )

     number of k points=    60  Marzari-Vanderbilt smearing, width (Ry)=  0.0500
                       cart. coord. in units 2pi/alat
        k(    1) = (   0.0625000   0.0625000   0.0625000), wk =   0.0078125
        k(    2) = (   0.0625000   0.0625000   0.1875000), wk =   0.0234375
        k(    3) = (   0.0625000   0.0625000   0.3125000), wk =   0.0234375
        k(    4) = (   0.0625000   0.0625000   0.4375000), wk =   0.0234375
        k(    5) = (   0.0625000   0.0625000   0.5625000), wk =   0.0234375
        k(    6) = (   0.0625000   0.0625000   0.6875000), wk =   0.0234375
        k(    7) = (   0.0625000   0.0625000   0.8125000), wk =   0.0234375
        k(    8) = (   0.0625000   0.0625000   0.9375000), wk =   0.0234375
        k(    9) = (   0.0625000   0.1875000   0.1875000), wk =   0.0234375
        k(   10) = (   0.0625000   0.1875000   0.3125000), wk =   0.0468750
        k(   11) = (   0.0625000   0.1875000   0.4375000), wk =   0.0468750
        k(   12) = (   0.0625000   0.1875000   0.5625000), wk =   0.0468750
        k(   13) = (   0.0625000   0.1875000   0.6875000), wk =   0.0468750
        k(   14) = (   0.0625000   0.1875000   0.8125000), wk =   0.0468750
        k(   15) = (   0.0625000   0.1875000   0.9375000), wk =   0.0468750
        k(   16) = (   0.0625000   0.3125000   0.3125000), wk =   0.0234375
        k(   17) = (   0.0625000   0.3125000   0.4375000), wk =   0.0468750
        k(   18) = (   0.0625000   0.3125000   0.5625000), wk =   0.0468750
        k(   19) = (   0.0625000   0.3125000   0.6875000), wk =   0.0468750
        k(   20) = (   0.0625000   0.3125000   0.8125000), wk =   0.0468750
        k(   21) = (   0.0625000   0.3125000   0.9375000), wk =   0.0468750
        k(   22) = (   0.0625000   0.4375000   0.4375000), wk =   0.0234375
        k(   23) = (   0.0625000   0.4375000   0.5625000), wk =   0.0468750
        k(   24) = (   0.0625000   0.4375000   0.6875000), wk =   0.0468750
        k(   25) = (   0.0625000   0.4375000   0.8125000), wk =   0.0468750
        k(   26) = (   0.0625000   0.4375000   0.9375000), wk =   0.0468750
        k(   27) = (   0.0625000   0.5625000   0.5625000), wk =   0.0234375
        k(   28) = (   0.0625000   0.5625000   0.6875000), wk =   0.0468750
        k(   29) = (   0.0625000   0.5625000   0.8125000), wk =   0.0468750
        k(   30) = (   0.0625000   0.6875000   0.6875000), wk =   0.0234375
        k(   31) = (   0.0625000   0.6875000   0.8125000), wk =   0.0468750
        k(   32) = (   0.0625000   0.8125000   0.8125000), wk =   0.0234375
        k(   33) = (   0.1875000   0.1875000   0.1875000), wk =   0.0078125
        k(   34) = (   0.1875000   0.1875000   0.3125000), wk =   0.0234375
        k(   35) = (   0.1875000   0.1875000   0.4375000), wk =   0.0234375
        k(   36) = (   0.1875000   0.1875000   0.5625000), wk =   0.0234375
        k(   37) = (   0.1875000   0.1875000   0.6875000), wk =   0.0234375
        k(   38) = (   0.1875000   0.1875000   0.8125000), wk =   0.0234375
        k(   39) = (   0.1875000   0.3125000   0.3125000), wk =   0.0234375
        k(   40) = (   0.1875000   0.3125000   0.4375000), wk =   0.0468750
        k(   41) = (   0.1875000   0.3125000   0.5625000), wk =   0.0468750
        k(   42) = (   0.1875000   0.3125000   0.6875000), wk =   0.0468750
        k(   43) = (   0.1875000   0.3125000   0.8125000), wk =   0.0468750
        k(   44) = (   0.1875000   0.4375000   0.4375000), wk =   0.0234375
        k(   45) = (   0.1875000   0.4375000   0.5625000), wk =   0.0468750
        k(   46) = (   0.1875000   0.4375000   0.6875000), wk =   0.0468750
        k(   47) = (   0.1875000   0.4375000   0.8125000), wk =   0.0468750
        k(   48) = (   0.1875000   0.5625000   0.5625000), wk =   0.0234375
        k(   49) = (   0.1875000   0.5625000   0.6875000), wk =   0.0468750
        k(   50) = (   0.1875000   0.6875000   0.6875000), wk =   0.0234375
        k(   51) = (   0.3125000   0.3125000   0.3125000), wk =   0.0078125
        k(   52) = (   0.3125000   0.3125000   0.4375000), wk =   0.0234375
        k(   53) = (   0.3125000   0.3125000   0.5625000), wk =   0.0234375
        k(   54) = (   0.3125000   0.3125000   0.6875000), wk =   0.0234375
        k(   55) = (   0.3125000   0.4375000   0.4375000), wk =   0.0234375
        k(   56) = (   0.3125000   0.4375000   0.5625000), wk =   0.0468750
        k(   57) = (   0.3125000   0.4375000   0.6875000), wk =   0.0468750
        k(   58) = (   0.3125000   0.5625000   0.5625000), wk =   0.0234375
        k(   59) = (   0.4375000   0.4375000   0.4375000), wk =   0.0078125
        k(   60) = (   0.4375000   0.4375000   0.5625000), wk =   0.0234375

     Dense  grid:    16049 G-vectors     FFT dimensions: (  36,  36,  36)

     Smooth grid:    14361 G-vectors     FFT dimensions: (  36,  36,  36)

     Estimated max dynamical RAM per process >      83.25 MB

     Initial potential from superposition of free atoms

     starting charge      15.9948, renormalised to      16.0000
     Starting wfcs are   13 randomized atomic wfcs
     Checking if some PAW data can be deallocated... 

     total cpu time spent up to now is        2.2 secs

     Self-consistent Calculation

     iteration #  1     ecut=    50.00 Ry     beta= 0.70
     CG style diagonalization
     ethr =  1.00E-02,  avg # of iterations =  3.0

     Threshold (ethr) on eigenvalues was too large:
     Diagonalizing with lowered threshold

     CG style diagonalization
     c_bands:  2 eigenvalues not converged
     c_bands:  1 eigenvalues not converged
     c_bands:  1 eigenvalues not converged
     ethr =  4.69E-05,  avg # of iterations =  7.9

     total cpu time spent up to now is       13.1 secs

     total energy              =    -317.34840777 Ry
     estimated scf accuracy    <       0.00996947 Ry

     iteration #  2     ecut=    50.00 Ry     beta= 0.70
     CG style diagonalization
     ethr =  6.23E-05,  avg # of iterations =  3.0

     total cpu time spent up to now is       16.4 secs

     total energy              =    -317.34879334 Ry
     estimated scf accuracy    <       0.00083810 Ry

     iteration #  3     ecut=    50.00 Ry     beta= 0.70
     CG style diagonalization
     c_bands:  1 eigenvalues not converged
     c_bands:  1 eigenvalues not converged
     c_bands:  1 eigenvalues not converged
     c_bands:  1 eigenvalues not converged
     c_bands:  1 eigenvalues not converged
     ethr =  5.24E-06,  avg # of iterations =  4.9

     total cpu time spent up to now is       21.5 secs

     total energy              =    -317.34906004 Ry
     estimated scf accuracy    <       0.00000817 Ry

     iteration #  4     ecut=    50.00 Ry     beta= 0.70
     CG style diagonalization
     c_bands:  1 eigenvalues not converged
     c_bands:  1 eigenvalues not converged
     c_bands:  1 eigenvalues not converged
     c_bands:  1 eigenvalues not converged
     c_bands:  1 eigenvalues not converged
     c_bands:  1 eigenvalues not converged
     c_bands:  1 eigenvalues not converged
     c_bands:  1 eigenvalues not converged
     c_bands:  1 eigenvalues not converged
     c_bands:  1 eigenvalues not converged
     c_bands:  2 eigenvalues not converged
     c_bands:  2 eigenvalues not converged
     c_bands:  1 eigenvalues not converged
     ethr =  5.11E-08,  avg # of iterations = 10.4

     total cpu time spent up to now is       31.3 secs

     total energy              =    -317.34927319 Ry
     estimated scf accuracy    <       0.00017447 Ry

     iteration #  5     ecut=    50.00 Ry     beta= 0.70
     CG style diagonalization
     ethr =  5.11E-08,  avg # of iterations =  3.1

     total cpu time spent up to now is       34.7 secs

     total energy              =    -317.34926834 Ry
     estimated scf accuracy    <       0.00018177 Ry

     iteration #  6     ecut=    50.00 Ry     beta= 0.70
     CG style diagonalization
     ethr =  5.11E-08,  avg # of iterations =  3.0

     total cpu time spent up to now is       38.0 secs

     total energy              =    -317.34924117 Ry
     estimated scf accuracy    <       0.00016156 Ry

     iteration #  7     ecut=    50.00 Ry     beta= 0.70
     CG style diagonalization
     ethr =  5.11E-08,  avg # of iterations =  3.5

     total cpu time spent up to now is       41.7 secs

     total energy              =    -317.34924404 Ry
     estimated scf accuracy    <       0.00008035 Ry

     iteration #  8     ecut=    50.00 Ry     beta= 0.70
     CG style diagonalization
     ethr =  5.11E-08,  avg # of iterations =  3.0

     total cpu time spent up to now is       45.0 secs

     total energy              =    -317.34924052 Ry
     estimated scf accuracy    <       0.00008270 Ry

     iteration #  9     ecut=    50.00 Ry     beta= 0.70
     CG style diagonalization
     ethr =  5.11E-08,  avg # of iterations =  3.0

     total cpu time spent up to now is       48.3 secs

     total energy              =    -317.34923058 Ry
     estimated scf accuracy    <       0.00006855 Ry

     iteration # 10     ecut=    50.00 Ry     beta= 0.70
     CG style diagonalization
     ethr =  5.11E-08,  avg # of iterations =  3.2

     total cpu time spent up to now is       51.7 secs

     total energy              =    -317.34922753 Ry
     estimated scf accuracy    <       0.00003441 Ry

     iteration # 11     ecut=    50.00 Ry     beta= 0.70
     CG style diagonalization
     ethr =  5.11E-08,  avg # of iterations =  3.3

     total cpu time spent up to now is       55.2 secs

     total energy              =    -317.34922570 Ry
     estimated scf accuracy    <       0.00001716 Ry

     iteration # 12     ecut=    50.00 Ry     beta= 0.70
     CG style diagonalization
     ethr =  5.11E-08,  avg # of iterations =  3.5

     total cpu time spent up to now is       58.9 secs

     total energy              =    -317.34922698 Ry
     estimated scf accuracy    <       0.00000422 Ry

     iteration # 13     ecut=    50.00 Ry     beta= 0.70
     CG style diagonalization
     ethr =  2.64E-08,  avg # of iterations =  5.0

     total cpu time spent up to now is       64.0 secs

     total energy              =    -317.34923560 Ry
     estimated scf accuracy    <       0.00000125 Ry

     iteration # 14     ecut=    50.00 Ry     beta= 0.70
     CG style diagonalization
     c_bands:  1 eigenvalues not converged
     ethr =  7.81E-09,  avg # of iterations =  5.7

     total cpu time spent up to now is       69.6 secs

     total energy              =    -317.34923710 Ry
     estimated scf accuracy    <       0.00002013 Ry

     iteration # 15     ecut=    50.00 Ry     beta= 0.70
     CG style diagonalization
     ethr =  7.81E-09,  avg # of iterations =  3.2

     total cpu time spent up to now is       73.1 secs

     total energy              =    -317.34923491 Ry
     estimated scf accuracy    <       0.00001622 Ry

     iteration # 16     ecut=    50.00 Ry     beta= 0.70
     CG style diagonalization
     ethr =  7.81E-09,  avg # of iterations =  3.1

     total cpu time spent up to now is       76.5 secs

     total energy              =    -317.34923509 Ry
     estimated scf accuracy    <       0.00000894 Ry

     iteration # 17     ecut=    50.00 Ry     beta= 0.70
     CG style diagonalization
     ethr =  7.81E-09,  avg # of iterations =  3.0

     total cpu time spent up to now is       79.8 secs

     total energy              =    -317.34923525 Ry
     estimated scf accuracy    <       0.00000917 Ry

     iteration # 18     ecut=    50.00 Ry     beta= 0.70
     CG style diagonalization
     ethr =  7.81E-09,  avg # of iterations =  3.0

     total cpu time spent up to now is       83.1 secs

     total energy              =    -317.34923544 Ry
     estimated scf accuracy    <       0.00000943 Ry

     iteration # 19     ecut=    50.00 Ry     beta= 0.70
     CG style diagonalization
     ethr =  7.81E-09,  avg # of iterations =  3.0

     total cpu time spent up to now is       86.3 secs

     total energy              =    -317.34923777 Ry
     estimated scf accuracy    <       0.00001005 Ry

     iteration # 20     ecut=    50.00 Ry     beta= 0.70
     CG style diagonalization
     ethr =  7.81E-09,  avg # of iterations =  3.1

     total cpu time spent up to now is       89.7 secs

     total energy              =    -317.34923536 Ry
     estimated scf accuracy    <       0.00001803 Ry

     iteration # 21     ecut=    50.00 Ry     beta= 0.70
     CG style diagonalization
     ethr =  7.81E-09,  avg # of iterations =  3.1

     total cpu time spent up to now is       93.2 secs

     total energy              =    -317.34923097 Ry
     estimated scf accuracy    <       0.00001085 Ry

     iteration # 22     ecut=    50.00 Ry     beta= 0.70
     CG style diagonalization
     ethr =  7.81E-09,  avg # of iterations =  5.3

     total cpu time spent up to now is       98.5 secs

     total energy              =    -317.34923333 Ry
     estimated scf accuracy    <       0.00000112 Ry

     iteration # 23     ecut=    50.00 Ry     beta= 0.70
     CG style diagonalization
     ethr =  6.99E-09,  avg # of iterations =  3.5

     total cpu time spent up to now is      102.2 secs

     End of self-consistent calculation

          k = 0.0625 0.0625 0.0625 (  1829 PWs)   bands (ev):

    -9.0286  -9.0278  -9.0278  -8.9661  -8.9661  -3.8334   7.5880   8.0801
     8.0802  10.4709  10.5225  10.5227

          k = 0.0625 0.0625 0.1875 (  1839 PWs)   bands (ev):

    -9.0302  -9.0255  -9.0253  -8.9673  -8.9649  -3.6993   6.8125   7.5558
     7.7908  10.1516  10.9140  11.1940

          k = 0.0625 0.0625 0.3125 (  1823 PWs)   bands (ev):

    -9.0336  -9.0207  -9.0205  -8.9696  -8.9628  -3.4321   5.9505   6.9135
     7.0691   9.6256  11.7047  12.1188

          k = 0.0625 0.0625 0.4375 (  1825 PWs)   bands (ev):

    -9.0379  -9.0145  -9.0142  -8.9729  -8.9601  -3.0346   5.0362   6.3115
     6.3153   9.0974  10.9894  13.1156

          k = 0.0625 0.0625 0.5625 (  1822 PWs)   bands (ev):

    -9.0425  -9.0076  -9.0073  -8.9768  -8.9573  -2.5117   4.0525   5.6731
     5.8111   8.6399  10.0699  14.1104

          k = 0.0625 0.0625 0.6875 (  1809 PWs)   bands (ev):

    -9.0468  -9.0012  -9.0008  -8.9807  -8.9546  -1.8737   3.0196   5.1981
     5.4217   8.2841   9.3712  15.1240

          k = 0.0625 0.0625 0.8125 (  1800 PWs)   bands (ev):

    -9.0500  -8.9962  -8.9957  -8.9838  -8.9527  -1.1450   1.9993   4.8864
     5.1575   8.0434   8.9102  16.1781

          k = 0.0625 0.0625 0.9375 (  1801 PWs)   bands (ev):

    -9.0517  -8.9934  -8.9929  -8.9856  -8.9516  -0.4369   1.1365   4.7322
     5.0240   7.9228   8.6820  17.0488

          k = 0.0625 0.1875 0.1875 (  1836 PWs)   bands (ev):

    -9.0298  -9.0250  -9.0234  -8.9671  -8.9650  -3.5661   6.0154   7.1132
     7.9803  10.5796  10.7227  11.1228

          k = 0.0625 0.1875 0.3125 (  1830 PWs)   bands (ev):

    -9.0320  -9.0211  -9.0198  -8.9687  -8.9632  -3.3011   5.2034   6.4623
     7.5512  10.2689  11.1796  11.8430

          k = 0.0625 0.1875 0.4375 (  1823 PWs)   bands (ev):

    -9.0358  -9.0155  -9.0144  -8.9716  -8.9607  -2.9075   4.4202   5.8324
     6.7793   9.7519  11.4740  12.0570

          k = 0.0625 0.1875 0.5625 (  1824 PWs)   bands (ev):

    -9.0400  -9.0098  -9.0077  -8.9751  -8.9580  -2.3915   3.6406   5.2653
     6.0022   9.2731  10.6646  12.8985

          k = 0.0625 0.1875 0.6875 (  1814 PWs)   bands (ev):

    -9.0438  -9.0043  -9.0012  -8.9787  -8.9557  -1.7653   2.8187   4.7763
     5.4009   8.8844  10.0586  13.7879

          k = 0.0625 0.1875 0.8125 (  1810 PWs)   bands (ev):

    -9.0467  -8.9999  -8.9960  -8.9817  -8.9541  -1.0581   1.9552   4.4119
     5.0294   8.6122   9.6712  14.7171

          k = 0.0625 0.1875 0.9375 (  1808 PWs)   bands (ev):

    -9.0483  -8.9973  -8.9932  -8.9834  -8.9533  -0.3911   1.1950   4.2223
     4.8560   8.4724   9.4835  15.6607

          k = 0.0625 0.3125 0.3125 (  1831 PWs)   bands (ev):

    -9.0310  -9.0198  -9.0182  -8.9680  -8.9633  -3.0410   4.4408   5.8233
     7.6506  10.7852  11.1501  11.5098

          k = 0.0625 0.3125 0.4375 (  1831 PWs)   bands (ev):

    -9.0327  -9.0162  -9.0146  -8.9694  -8.9618  -2.6564   3.7345   5.2156
     7.1156  10.7208  11.0651  12.2856

          k = 0.0625 0.3125 0.5625 (  1825 PWs)   bands (ev):

    -9.0356  -9.0129  -9.0081  -8.9721  -8.9597  -2.1560   3.0858   4.6925
     6.2619  10.2841  11.4537  11.7839

          k = 0.0625 0.3125 0.6875 (  1821 PWs)   bands (ev):

    -9.0386  -9.0093  -9.0015  -8.9753  -8.9579  -1.5571   2.4658   4.2712
     5.4189   9.9043  11.1192  12.3106

          k = 0.0625 0.3125 0.8125 (  1820 PWs)   bands (ev):

    -9.0409  -9.0061  -8.9963  -8.9782  -8.9567  -0.8994   1.8396   3.9591
     4.7929   9.6386  10.7997  13.1314

          k = 0.0625 0.3125 0.9375 (  1812 PWs)   bands (ev):

    -9.0422  -9.0041  -8.9934  -8.9799  -8.9562  -0.3215   1.2844   3.7817
     4.4816   9.5032  10.6411  14.0380

          k = 0.0625 0.4375 0.4375 (  1831 PWs)   bands (ev):

    -9.0311  -9.0153  -9.0133  -8.9675  -8.9632  -2.2882   3.0990   4.6334
     7.0534  10.3438  11.8546  12.1148

          k = 0.0625 0.4375 0.5625 (  1823 PWs)   bands (ev):

    -9.0319  -9.0145  -9.0081  -8.9687  -8.9625  -1.8168   2.5423   4.1483
     6.4521  10.2845  11.5781  12.9275

          k = 0.0625 0.4375 0.6875 (  1817 PWs)   bands (ev):

    -9.0336  -9.0133  -9.0018  -8.9718  -8.9608  -1.2689   2.0653   3.7918
     5.5767  10.6377  11.3136  12.5436

          k = 0.0625 0.4375 0.8125 (  1817 PWs)   bands (ev):

    -9.0351  -9.0118  -8.9965  -8.9749  -8.9595  -0.7031   1.6570   3.5879
     4.7535  10.8200  11.5313  12.3125

          k = 0.0625 0.4375 0.9375 (  1813 PWs)   bands (ev):

    -9.0360  -9.0108  -8.9935  -8.9768  -8.9589  -0.2683   1.3529   3.5413
     4.2138  10.7578  11.8699  12.5961

          k = 0.0625 0.5625 0.5625 (  1813 PWs)   bands (ev):

    -9.0316  -9.0130  -9.0064  -8.9669  -8.9646  -1.3966   2.0747   3.7105
     6.3523   9.5502  12.8555  13.0825

          k = 0.0625 0.5625 0.6875 (  1814 PWs)   bands (ev):

    -9.0334  -9.0117  -9.0016  -8.9709  -8.9620  -0.9394   1.7126   3.4298
     5.7674   9.5254  12.6646  13.9254

          k = 0.0625 0.5625 0.8125 (  1818 PWs)   bands (ev):

    -9.0351  -9.0111  -8.9965  -8.9746  -8.9599  -0.5245   1.4708   3.3603
     4.9422  10.0268  12.3927  13.1979

          k = 0.0625 0.6875 0.6875 (  1816 PWs)   bands (ev):

    -9.0369  -9.0069  -9.0001  -8.9740  -8.9599  -0.6321   1.4645   3.2648
     5.7222   8.8453  12.9370  14.1241

          k = 0.0625 0.6875 0.8125 (  1813 PWs)   bands (ev):

    -9.0403  -9.0047  -8.9964  -8.9777  -8.9575  -0.4179   1.3329   3.3737
     5.2108   8.9204  11.7095  14.1217

          k = 0.0625 0.8125 0.8125 (  1817 PWs)   bands (ev):

    -9.0454  -8.9990  -8.9955  -8.9812  -8.9549  -0.3879   1.2432   3.6792
     5.2633   8.3317  10.4820  15.5958

          k = 0.1875 0.1875 0.1875 (  1835 PWs)   bands (ev):

    -9.0297  -9.0231  -9.0231  -8.9658  -8.9658  -3.4340   5.2326   7.5749
     7.5750  10.1226  11.1451  11.1454

          k = 0.1875 0.1875 0.3125 (  1826 PWs)   bands (ev):

    -9.0314  -9.0207  -9.0195  -8.9676  -8.9636  -3.1717   4.4497   7.0232
     7.3044  10.2340  10.9316  11.7390

          k = 0.1875 0.1875 0.4375 (  1832 PWs)   bands (ev):

    -9.0345  -9.0163  -9.0146  -8.9702  -8.9610  -2.7832   3.7363   6.4805
     6.4946   9.8793  11.5935  12.3861

          k = 0.1875 0.1875 0.5625 (  1828 PWs)   bands (ev):

    -9.0381  -9.0109  -9.0088  -8.9734  -8.9585  -2.2762   3.0898   5.5516
     6.0107   9.3136  11.4711  13.0807

          k = 0.1875 0.1875 0.6875 (  1817 PWs)   bands (ev):

    -9.0415  -9.0057  -9.0030  -8.9767  -8.9565  -1.6664   2.4725   4.6724
     5.6426   8.8331  10.9646  13.8540

          k = 0.1875 0.1875 0.8125 (  1811 PWs)   bands (ev):

    -9.0440  -9.0014  -8.9982  -8.9795  -8.9554  -0.9913   1.8319   4.0147
     5.3909   8.5002  10.6400  14.7070

          k = 0.1875 0.3125 0.3125 (  1834 PWs)   bands (ev):

    -9.0313  -9.0192  -9.0181  -8.9666  -8.9636  -2.9156   3.6942   6.6035
     7.4571  10.1612  11.1049  11.4300

          k = 0.1875 0.3125 0.4375 (  1832 PWs)   bands (ev):

    -9.0327  -9.0165  -9.0148  -8.9679  -8.9618  -2.5386   3.0262   6.0148
     7.0054  10.2978  10.9724  11.8962

          k = 0.1875 0.3125 0.5625 (  1823 PWs)   bands (ev):

    -9.0350  -9.0133  -9.0095  -8.9704  -8.9597  -2.0528   2.4622   5.3655
     6.2834   9.8565  11.5250  12.6147

          k = 0.1875 0.3125 0.6875 (  1815 PWs)   bands (ev):

    -9.0374  -9.0098  -9.0039  -8.9734  -8.9583  -1.4825   1.9989   4.6000
     5.7089   9.3986  12.0188  12.4809

          k = 0.1875 0.3125 0.8125 (  1818 PWs)   bands (ev):

    -9.0393  -9.0067  -8.9991  -8.9761  -8.9577  -0.8848   1.6181   3.8484
     5.3688   9.0805  11.8394  13.2299

          k = 0.1875 0.4375 0.4375 (  1825 PWs)   bands (ev):

    -9.0319  -9.0152  -9.0140  -8.9660  -8.9628  -2.1839   2.4081   5.4854
     7.0406  10.2925  11.3509  11.3938

          k = 0.1875 0.4375 0.5625 (  1817 PWs)   bands (ev):

    -9.0324  -9.0145  -9.0097  -8.9671  -8.9620  -1.7394   1.9184   4.9601
     6.5095  10.3601  10.9014  12.4736

          k = 0.1875 0.4375 0.6875 (  1810 PWs)   bands (ev):

    -9.0335  -9.0134  -9.0042  -8.9700  -8.9607  -1.2483   1.5861   4.4262
     5.7693  10.4003  10.9480  13.5320

          k = 0.1875 0.4375 0.8125 (  1815 PWs)   bands (ev):

    -9.0345  -9.0121  -8.9993  -8.9729  -8.9601  -0.7981   1.4436   3.8416
     5.2045  10.1595  11.6232  13.3173

          k = 0.1875 0.5625 0.5625 (  1816 PWs)   bands (ev):

    -9.0322  -9.0134  -9.0083  -8.9659  -8.9635  -1.3744   1.5285   4.5383
     6.4279   9.6868  12.1217  12.1620

          k = 0.1875 0.5625 0.6875 (  1816 PWs)   bands (ev):

    -9.0334  -9.0125  -9.0041  -8.9694  -8.9614  -1.0302   1.3571   4.1630
     5.8964   9.6733  11.8408  13.5089

          k = 0.1875 0.6875 0.6875 (  1821 PWs)   bands (ev):

    -9.0363  -9.0086  -9.0027  -8.9726  -8.9595  -0.9063   1.3864   3.9358
     5.8344   9.0137  12.9384  13.3091

          k = 0.3125 0.3125 0.3125 (  1841 PWs)   bands (ev):

    -9.0319  -9.0176  -9.0176  -8.9643  -8.9643  -2.6687   2.9539   7.1244
     7.1244   9.7139  11.1891  11.1892

          k = 0.3125 0.3125 0.4375 (  1836 PWs)   bands (ev):

    -9.0328  -9.0163  -9.0149  -8.9657  -8.9619  -2.3102   2.3209   6.7351
     6.7948   9.9333  10.8458  11.4672

          k = 0.3125 0.3125 0.5625 (  1821 PWs)   bands (ev):

    -9.0340  -9.0141  -9.0111  -8.9677  -8.9602  -1.8602   1.8267   5.9084
     6.3617   9.7853  11.3122  11.9276

          k = 0.3125 0.3125 0.6875 (  1811 PWs)   bands (ev):

    -9.0353  -9.0113  -9.0067  -8.9702  -8.9594  -1.3620   1.5014   4.8896
     6.0524   9.3432  12.2657  12.5497

          k = 0.3125 0.4375 0.4375 (  1827 PWs)   bands (ev):

    -9.0329  -9.0149  -9.0148  -8.9639  -8.9623  -1.9889   1.7408   6.3931
     6.9926   9.8766  11.0193  11.0316

          k = 0.3125 0.4375 0.5625 (  1819 PWs)   bands (ev):

    -9.0331  -9.0145  -9.0118  -8.9649  -8.9615  -1.6140   1.3413   5.8630
     6.6047  10.1601  10.6598  11.6405

          k = 0.3125 0.4375 0.6875 (  1815 PWs)   bands (ev):

    -9.0333  -9.0136  -9.0079  -8.9671  -8.9611  -1.2620   1.1928   5.0736
     6.1666   9.9534  11.0863  12.5339

          k = 0.3125 0.5625 0.5625 (  1824 PWs)   bands (ev):

    -9.0330  -9.0140  -9.0110  -8.9643  -8.9622  -1.3857   1.1021   5.5429
     6.5648   9.8977  11.1922  11.5358

          k = 0.4375 0.4375 0.4375 (  1823 PWs)   bands (ev):

    -9.0336  -9.0147  -9.0147  -8.9622  -8.9622  -1.7397   1.2406   6.8876
     6.8878   9.5007  10.9272  10.9273

          k = 0.4375 0.4375 0.5625 (  1819 PWs)   bands (ev):

    -9.0336  -9.0144  -9.0134  -8.9629  -8.9616  -1.5091   0.9990   6.4692
     6.7323   9.7959  10.7688  11.1057

     the Fermi energy is     5.5215 ev

!    total energy              =    -317.34923332 Ry
     total all-electron energy =     -4373.656675 Ry
     estimated scf accuracy    <       0.00000040 Ry
     smearing contrib. (-TS)   =      -0.00133042 Ry
     internal energy E=F+TS    =    -317.34790290 Ry

     The total energy is F=E-TS. E is the sum of the following terms:
     one-electron contribution =    -124.51978753 Ry
     hartree contribution      =      75.76437128 Ry
     xc contribution           =     -40.61934362 Ry
     ewald contribution        =     -82.24853885 Ry
     one-center paw contrib.   =    -145.72460417 Ry

     convergence has been achieved in  23 iterations

     Forces acting on atoms (cartesian axes, Ry/au):

     atom    1 type  2   force =     0.00000000    0.00000000    0.00000000
     atom    2 type  1   force =     0.00000000   -0.00000000    0.00000000

     Total force =     0.000000     Total SCF correction =     0.000000


     Computing stress (Cartesian axis) and pressure

          total   stress  (Ry/bohr**3)                   (kbar)     P=       71.50
   0.00048606   0.00000000  -0.00000000           71.50        0.00       -0.00
   0.00000000   0.00048606   0.00000000            0.00       71.50        0.00
  -0.00000000   0.00000000   0.00048606           -0.00        0.00       71.50


     Writing all to output data dir /home/nico-sachs/source/q-e/tempdir/al.save/ :
     XML data file, charge density, pseudopotentials, collected wavefunctions

     init_run     :      1.91s CPU      1.99s WALL (       1 calls)
     electrons    :     96.54s CPU    100.00s WALL (       1 calls)
     forces       :      0.44s CPU      0.47s WALL (       1 calls)
     stress       :      2.00s CPU      2.12s WALL (       1 calls)

     Called by init_run:
     wfcinit      :      0.93s CPU      0.93s WALL (       1 calls)
     potinit      :      0.34s CPU      0.39s WALL (       1 calls)
     hinit0       :      0.56s CPU      0.56s WALL (       1 calls)

     Called by electrons:
     c_bands      :     78.53s CPU     79.51s WALL (      24 calls)
     sum_band     :      8.60s CPU      9.45s WALL (      24 calls)
     v_of_rho     :      0.31s CPU      0.33s WALL (      24 calls)
     newd         :      1.59s CPU      2.28s WALL (      24 calls)
     PAW_pot      :      7.81s CPU      8.78s WALL (      24 calls)
     mix_rho      :      0.06s CPU      0.06s WALL (      24 calls)

     Called by c_bands:
     init_us_2    :      1.48s CPU      1.50s WALL (    3060 calls)
     ccgdiagg     :     63.25s CPU     64.14s WALL (    1440 calls)
     wfcrot       :     15.31s CPU     15.39s WALL (    1380 calls)

     Called by *cgdiagg:
     h_psi        :     51.40s CPU     52.05s WALL (   54619 calls)
     s_psi        :     12.88s CPU     13.05s WALL (  107858 calls)

     Called by h_psi:
     h_psi:calbec :      9.22s CPU      9.32s WALL (   54619 calls)
     vloc_psi     :     34.45s CPU     34.92s WALL (   54619 calls)
                                        0.00s GPU  (   54619 calls)
     add_vuspsi   :      7.33s CPU      7.40s WALL (   54619 calls)
     hs_1psi      :     45.57s CPU     46.23s WALL (   53239 calls)
     s_1psi       :     13.35s CPU     13.52s WALL (   53239 calls)

     General routines
     calbec       :     19.47s CPU     19.69s WALL (  110318 calls)
     fft          :      0.30s CPU      0.30s WALL (     336 calls)
     ffts         :      0.02s CPU      0.02s WALL (      48 calls)
     fftw         :     33.26s CPU     33.68s WALL (  156998 calls)
     interpolate  :      0.02s CPU      0.02s WALL (      24 calls)

     Parallel routines

     PWSCF        :   1m41.07s CPU   1m44.78s WALL


   This run was terminated on:  16:24: 5  26Jan2026            

=------------------------------------------------------------------------------=
   JOB DONE.
=------------------------------------------------------------------------------=
