
     Program PWSCF v.7.5 starts on 26Jan2026 at 15:57:25 

     This program is part of the open-source Quantum ESPRESSO suite
     for quantum simulation of materials; please cite
         "P. Giannozzi et al., J. Phys.:Condens. Matter 21 395502 (2009);
         "P. Giannozzi et al., J. Phys.:Condens. Matter 29 465901 (2017);
         "P. Giannozzi et al., J. Chem. Phys. 152 154105 (2020);
          URL http://www.quantum-espresso.org", 
     in publications or presentations arising from this work. More details at
     http://www.quantum-espresso.org/quote

     Parallel version (MPI), running on     1 processors

     MPI processes distributed on     1 nodes
     24879 MiB available memory on the printing compute node when the environment starts

     Waiting for input...
     Reading input from standard input

     Current dimensions of program PWSCF are:
     Max number of different atomic species (ntypx) = 10
     Max number of k-points (npk) =  40000
     Max angular momentum in pseudopotentials (lmaxx) =  4
     file Ga.pbe-dn-kjpaw_psl.1.0.0.UPF: wavefunction(s)  4S renormalized
     file Al.pbe-n-kjpaw_psl.1.0.0.UPF: wavefunction(s)  3S 3P renormalized
     Message from routine volume:
     axis vectors are left-handed
     Message from routine setup:
     using ibrav=0 with symmetry is DISCOURAGED, use correct ibrav instead

     Subspace diagonalization in iterative solution of the eigenvalue problem:
     a serial algorithm will be used


     G-vector sticks info
     --------------------
     sticks:   dense  smooth     PW     G-vecs:    dense   smooth      PW
     Sum        2347    2347    649                75457    75457   11017

     Using Slab Decomposition



     bravais-lattice index     =            0
     lattice parameter (alat)  =      10.6829  a.u.
     unit-cell volume          =     304.7984 (a.u.)^3
     number of atoms/cell      =            2
     number of atomic types    =            2
     number of electrons       =        16.00
     number of Kohn-Sham states=           12
     kinetic-energy cutoff     =     150.0000  Ry
     charge density cutoff     =     600.0000  Ry
     scf convergence threshold =      1.0E-06
     mixing beta               =       0.7000
     number of iterations used =            8  plain     mixing
     Exchange-correlation= SLA  PW   PBX  PBC
                           (   1   4   3   4   0   0   0)

     celldm(1)=  10.682943  celldm(2)=   0.000000  celldm(3)=   0.000000
     celldm(4)=   0.000000  celldm(5)=   0.000000  celldm(6)=   0.000000

     crystal axes: (cart. coord. in units of alat)
               a(1) = (   0.500000   0.500000   0.000000 )  
               a(2) = (   0.500000   0.000000   0.500000 )  
               a(3) = (   0.000000   0.500000   0.500000 )  

     reciprocal axes: (cart. coord. in units 2 pi/alat)
               b(1) = (  1.000000  1.000000 -1.000000 )  
               b(2) = (  1.000000 -1.000000  1.000000 )  
               b(3) = ( -1.000000  1.000000  1.000000 )  


     PseudoPot. # 1 for Ga read from file:
     /home/nico-sachs/source/q-e/SSSP_1.3.0_PBE_efficiency/Ga.pbe-dn-kjpaw_psl.1.0.0.UPF
     MD5 check sum: a27b4342b1af7e5f338de752e9ed7044
     Pseudo is Projector augmented-wave + core cor, Zval = 13.0
     Generated using "atomic" code by A. Dal Corso  v.5.1
     Shape of augmentation charge: PSQ
     Using radial grid of 1205 points,  6 beta functions with: 
                l(1) =   0
                l(2) =   0
                l(3) =   1
                l(4) =   1
                l(5) =   2
                l(6) =   2
     Q(r) pseudized with 0 coefficients 


     PseudoPot. # 2 for Al read from file:
     /home/nico-sachs/source/q-e/SSSP_1.3.0_PBE_efficiency/Al.pbe-n-kjpaw_psl.1.0.0.UPF
     MD5 check sum: cfc449ca30b5f3223ec38ddd88ac046d
     Pseudo is Projector augmented-wave + core cor, Zval =  3.0
     Generated using "atomic" code by A. Dal Corso  v.5.1
     Shape of augmentation charge: PSQ
     Using radial grid of 1135 points,  6 beta functions with: 
                l(1) =   0
                l(2) =   0
                l(3) =   1
                l(4) =   1
                l(5) =   2
                l(6) =   2
     Q(r) pseudized with 0 coefficients 


     atomic species   valence    mass     pseudopotential
     Ga               13.00    69.72300     Ga( 1.00)
     As                3.00    74.92100     Al( 1.00)

     24 Sym. Ops. (no inversion) found



   Cartesian axes

     site n.     atom                  positions (alat units)
         1        As     tau(   1) = (   0.2500000   0.2500000   0.2500000  )
         2        Ga     tau(   2) = (   0.0000000   0.0000000   0.0000000  )

     number of k points=    60  Marzari-Vanderbilt smearing, width (Ry)=  0.0500
                       cart. coord. in units 2pi/alat
        k(    1) = (   0.0625000   0.0625000   0.0625000), wk =   0.0078125
        k(    2) = (   0.0625000   0.0625000   0.1875000), wk =   0.0234375
        k(    3) = (   0.0625000   0.0625000   0.3125000), wk =   0.0234375
        k(    4) = (   0.0625000   0.0625000   0.4375000), wk =   0.0234375
        k(    5) = (   0.0625000   0.0625000   0.5625000), wk =   0.0234375
        k(    6) = (   0.0625000   0.0625000   0.6875000), wk =   0.0234375
        k(    7) = (   0.0625000   0.0625000   0.8125000), wk =   0.0234375
        k(    8) = (   0.0625000   0.0625000   0.9375000), wk =   0.0234375
        k(    9) = (   0.0625000   0.1875000   0.1875000), wk =   0.0234375
        k(   10) = (   0.0625000   0.1875000   0.3125000), wk =   0.0468750
        k(   11) = (   0.0625000   0.1875000   0.4375000), wk =   0.0468750
        k(   12) = (   0.0625000   0.1875000   0.5625000), wk =   0.0468750
        k(   13) = (   0.0625000   0.1875000   0.6875000), wk =   0.0468750
        k(   14) = (   0.0625000   0.1875000   0.8125000), wk =   0.0468750
        k(   15) = (   0.0625000   0.1875000   0.9375000), wk =   0.0468750
        k(   16) = (   0.0625000   0.3125000   0.3125000), wk =   0.0234375
        k(   17) = (   0.0625000   0.3125000   0.4375000), wk =   0.0468750
        k(   18) = (   0.0625000   0.3125000   0.5625000), wk =   0.0468750
        k(   19) = (   0.0625000   0.3125000   0.6875000), wk =   0.0468750
        k(   20) = (   0.0625000   0.3125000   0.8125000), wk =   0.0468750
        k(   21) = (   0.0625000   0.3125000   0.9375000), wk =   0.0468750
        k(   22) = (   0.0625000   0.4375000   0.4375000), wk =   0.0234375
        k(   23) = (   0.0625000   0.4375000   0.5625000), wk =   0.0468750
        k(   24) = (   0.0625000   0.4375000   0.6875000), wk =   0.0468750
        k(   25) = (   0.0625000   0.4375000   0.8125000), wk =   0.0468750
        k(   26) = (   0.0625000   0.4375000   0.9375000), wk =   0.0468750
        k(   27) = (   0.0625000   0.5625000   0.5625000), wk =   0.0234375
        k(   28) = (   0.0625000   0.5625000   0.6875000), wk =   0.0468750
        k(   29) = (   0.0625000   0.5625000   0.8125000), wk =   0.0468750
        k(   30) = (   0.0625000   0.6875000   0.6875000), wk =   0.0234375
        k(   31) = (   0.0625000   0.6875000   0.8125000), wk =   0.0468750
        k(   32) = (   0.0625000   0.8125000   0.8125000), wk =   0.0234375
        k(   33) = (   0.1875000   0.1875000   0.1875000), wk =   0.0078125
        k(   34) = (   0.1875000   0.1875000   0.3125000), wk =   0.0234375
        k(   35) = (   0.1875000   0.1875000   0.4375000), wk =   0.0234375
        k(   36) = (   0.1875000   0.1875000   0.5625000), wk =   0.0234375
        k(   37) = (   0.1875000   0.1875000   0.6875000), wk =   0.0234375
        k(   38) = (   0.1875000   0.1875000   0.8125000), wk =   0.0234375
        k(   39) = (   0.1875000   0.3125000   0.3125000), wk =   0.0234375
        k(   40) = (   0.1875000   0.3125000   0.4375000), wk =   0.0468750
        k(   41) = (   0.1875000   0.3125000   0.5625000), wk =   0.0468750
        k(   42) = (   0.1875000   0.3125000   0.6875000), wk =   0.0468750
        k(   43) = (   0.1875000   0.3125000   0.8125000), wk =   0.0468750
        k(   44) = (   0.1875000   0.4375000   0.4375000), wk =   0.0234375
        k(   45) = (   0.1875000   0.4375000   0.5625000), wk =   0.0468750
        k(   46) = (   0.1875000   0.4375000   0.6875000), wk =   0.0468750
        k(   47) = (   0.1875000   0.4375000   0.8125000), wk =   0.0468750
        k(   48) = (   0.1875000   0.5625000   0.5625000), wk =   0.0234375
        k(   49) = (   0.1875000   0.5625000   0.6875000), wk =   0.0468750
        k(   50) = (   0.1875000   0.6875000   0.6875000), wk =   0.0234375
        k(   51) = (   0.3125000   0.3125000   0.3125000), wk =   0.0078125
        k(   52) = (   0.3125000   0.3125000   0.4375000), wk =   0.0234375
        k(   53) = (   0.3125000   0.3125000   0.5625000), wk =   0.0234375
        k(   54) = (   0.3125000   0.3125000   0.6875000), wk =   0.0234375
        k(   55) = (   0.3125000   0.4375000   0.4375000), wk =   0.0234375
        k(   56) = (   0.3125000   0.4375000   0.5625000), wk =   0.0468750
        k(   57) = (   0.3125000   0.4375000   0.6875000), wk =   0.0468750
        k(   58) = (   0.3125000   0.5625000   0.5625000), wk =   0.0234375
        k(   59) = (   0.4375000   0.4375000   0.4375000), wk =   0.0078125
        k(   60) = (   0.4375000   0.4375000   0.5625000), wk =   0.0234375

     Dense  grid:    75457 G-vectors     FFT dimensions: (  60,  60,  60)

     Estimated max dynamical RAM per process >     394.68 MB

     Initial potential from superposition of free atoms

     starting charge      15.9948, renormalised to      16.0000
     Starting wfcs are   13 randomized atomic wfcs
     Checking if some PAW data can be deallocated... 

     total cpu time spent up to now is        6.5 secs

     Self-consistent Calculation

     iteration #  1     ecut=   150.00 Ry     beta= 0.70
     CG style diagonalization
     ethr =  1.00E-02,  avg # of iterations =  3.1

     Threshold (ethr) on eigenvalues was too large:
     Diagonalizing with lowered threshold

     CG style diagonalization
     c_bands:  1 eigenvalues not converged
     c_bands:  1 eigenvalues not converged
     c_bands:  1 eigenvalues not converged
     c_bands:  1 eigenvalues not converged
     c_bands:  1 eigenvalues not converged
     c_bands:  1 eigenvalues not converged
     c_bands:  1 eigenvalues not converged
     c_bands:  1 eigenvalues not converged
     c_bands:  1 eigenvalues not converged
     ethr =  4.71E-05,  avg # of iterations =  8.1

     total cpu time spent up to now is       67.5 secs

     total energy              =    -317.34938993 Ry
     estimated scf accuracy    <       0.01003039 Ry

     iteration #  2     ecut=   150.00 Ry     beta= 0.70
     CG style diagonalization
     ethr =  6.27E-05,  avg # of iterations =  3.0

     total cpu time spent up to now is       84.0 secs

     total energy              =    -317.34978702 Ry
     estimated scf accuracy    <       0.00083471 Ry

     iteration #  3     ecut=   150.00 Ry     beta= 0.70
     CG style diagonalization
     c_bands:  1 eigenvalues not converged
     c_bands:  1 eigenvalues not converged
     c_bands:  1 eigenvalues not converged
     c_bands:  1 eigenvalues not converged
     ethr =  5.22E-06,  avg # of iterations =  5.2

     total cpu time spent up to now is      111.8 secs

     total energy              =    -317.35008809 Ry
     estimated scf accuracy    <       0.00000989 Ry

     iteration #  4     ecut=   150.00 Ry     beta= 0.70
     CG style diagonalization
     c_bands:  1 eigenvalues not converged
     c_bands:  1 eigenvalues not converged
     c_bands:  1 eigenvalues not converged
     c_bands:  1 eigenvalues not converged
     c_bands:  1 eigenvalues not converged
     c_bands:  2 eigenvalues not converged
     c_bands:  1 eigenvalues not converged
     c_bands:  1 eigenvalues not converged
     c_bands:  1 eigenvalues not converged
     c_bands:  1 eigenvalues not converged
     c_bands:  1 eigenvalues not converged
     c_bands:  1 eigenvalues not converged
     c_bands:  1 eigenvalues not converged
     c_bands:  1 eigenvalues not converged
     ethr =  6.18E-08,  avg # of iterations = 10.7

     total cpu time spent up to now is      165.8 secs

     total energy              =    -317.35034469 Ry
     estimated scf accuracy    <       0.00020588 Ry

     iteration #  5     ecut=   150.00 Ry     beta= 0.70
     CG style diagonalization
     ethr =  6.18E-08,  avg # of iterations =  3.4

     total cpu time spent up to now is      183.9 secs

     total energy              =    -317.35030163 Ry
     estimated scf accuracy    <       0.00027757 Ry

     iteration #  6     ecut=   150.00 Ry     beta= 0.70
     CG style diagonalization
     ethr =  6.18E-08,  avg # of iterations =  3.5

     total cpu time spent up to now is      202.5 secs

     total energy              =    -317.35023980 Ry
     estimated scf accuracy    <       0.00013683 Ry

     iteration #  7     ecut=   150.00 Ry     beta= 0.70
     CG style diagonalization
     ethr =  6.18E-08,  avg # of iterations =  6.3

     total cpu time spent up to now is      234.9 secs

     total energy              =    -317.35029885 Ry
     estimated scf accuracy    <       0.00012508 Ry

     iteration #  8     ecut=   150.00 Ry     beta= 0.70
     CG style diagonalization
     ethr =  6.18E-08,  avg # of iterations =  3.2

     total cpu time spent up to now is      252.3 secs

     total energy              =    -317.35028092 Ry
     estimated scf accuracy    <       0.00010718 Ry

     iteration #  9     ecut=   150.00 Ry     beta= 0.70
     CG style diagonalization
     ethr =  6.18E-08,  avg # of iterations =  3.4

     total cpu time spent up to now is      270.5 secs

     total energy              =    -317.35026736 Ry
     estimated scf accuracy    <       0.00004308 Ry

     iteration # 10     ecut=   150.00 Ry     beta= 0.70
     CG style diagonalization
     ethr =  6.18E-08,  avg # of iterations =  6.4

     total cpu time spent up to now is      303.1 secs

     total energy              =    -317.35027031 Ry
     estimated scf accuracy    <       0.00025276 Ry

     iteration # 11     ecut=   150.00 Ry     beta= 0.70
     CG style diagonalization
     ethr =  6.18E-08,  avg # of iterations =  3.9

     total cpu time spent up to now is      323.8 secs

     total energy              =    -317.35027611 Ry
     estimated scf accuracy    <       0.00005419 Ry

     iteration # 12     ecut=   150.00 Ry     beta= 0.70
     CG style diagonalization
     ethr =  6.18E-08,  avg # of iterations =  3.7

     total cpu time spent up to now is      343.6 secs

     total energy              =    -317.35027653 Ry
     estimated scf accuracy    <       0.00003588 Ry

     iteration # 13     ecut=   150.00 Ry     beta= 0.70
     CG style diagonalization
     ethr =  6.18E-08,  avg # of iterations =  3.1

     total cpu time spent up to now is      360.5 secs

     total energy              =    -317.35027705 Ry
     estimated scf accuracy    <       0.00002486 Ry

     iteration # 14     ecut=   150.00 Ry     beta= 0.70
     CG style diagonalization
     ethr =  6.18E-08,  avg # of iterations =  3.0

     total cpu time spent up to now is      376.8 secs

     total energy              =    -317.35027525 Ry
     estimated scf accuracy    <       0.00002308 Ry

     iteration # 15     ecut=   150.00 Ry     beta= 0.70
     CG style diagonalization
     ethr =  6.18E-08,  avg # of iterations =  3.0

     total cpu time spent up to now is      393.2 secs

     total energy              =    -317.35027321 Ry
     estimated scf accuracy    <       0.00001524 Ry

     iteration # 16     ecut=   150.00 Ry     beta= 0.70
     CG style diagonalization
     ethr =  6.18E-08,  avg # of iterations =  3.3

     total cpu time spent up to now is      410.7 secs

     total energy              =    -317.35027387 Ry
     estimated scf accuracy    <       0.00000534 Ry

     iteration # 17     ecut=   150.00 Ry     beta= 0.70
     CG style diagonalization
     ethr =  3.34E-08,  avg # of iterations =  4.5

     total cpu time spent up to now is      433.8 secs

     End of self-consistent calculation

          k = 0.0625 0.0625 0.0625 (  9447 PWs)   bands (ev):

    -9.0672  -9.0664  -9.0664  -9.0048  -9.0048  -3.8339   7.5825   8.0742
     8.0744  10.4576  10.5084  10.5085

          k = 0.0625 0.0625 0.1875 (  9459 PWs)   bands (ev):

    -9.0688  -9.0641  -9.0639  -9.0060  -9.0037  -3.6998   6.8076   7.5505
     7.7850  10.1384  10.9016  11.1793

          k = 0.0625 0.0625 0.3125 (  9480 PWs)   bands (ev):

    -9.0721  -9.0594  -9.0592  -9.0083  -9.0016  -3.4327   5.9464   6.9092
     7.0643   9.6134  11.6930  12.1032

          k = 0.0625 0.0625 0.4375 (  9466 PWs)   bands (ev):

    -9.0764  -9.0532  -9.0529  -9.0116  -8.9989  -3.0352   5.0326   6.3075
     6.3118   9.0856  10.9741  13.0974

          k = 0.0625 0.0625 0.5625 (  9455 PWs)   bands (ev):

    -9.0811  -9.0464  -9.0461  -9.0155  -8.9961  -2.5126   4.0494   5.6703
     5.8087   8.6286  10.0543  14.1045

          k = 0.0625 0.0625 0.6875 (  9435 PWs)   bands (ev):

    -9.0853  -9.0400  -9.0396  -9.0193  -8.9935  -1.8747   3.0169   5.1960
     5.4201   8.2730   9.3553  15.1089

          k = 0.0625 0.0625 0.8125 (  9449 PWs)   bands (ev):

    -9.0885  -9.0350  -9.0346  -9.0224  -8.9915  -1.1463   1.9972   4.8850
     5.1563   8.0327   8.8944  16.1195

          k = 0.0625 0.0625 0.9375 (  9456 PWs)   bands (ev):

    -9.0902  -9.0323  -9.0318  -9.0242  -8.9905  -0.4388   1.1350   4.7310
     5.0232   7.9118   8.6666  17.0377

          k = 0.0625 0.1875 0.1875 (  9478 PWs)   bands (ev):

    -9.0684  -9.0636  -9.0621  -9.0058  -9.0037  -3.5666   6.0113   7.1083
     7.9748  10.5678  10.7095  11.1092

          k = 0.0625 0.1875 0.3125 (  9470 PWs)   bands (ev):

    -9.0706  -9.0598  -9.0585  -9.0074  -9.0020  -3.3017   5.1998   6.4577
     7.5460  10.2565  11.1682  11.8283

          k = 0.0625 0.1875 0.4375 (  9450 PWs)   bands (ev):

    -9.0743  -9.0542  -9.0531  -9.0103  -8.9995  -2.9082   4.4171   5.8286
     6.7750   9.7401  11.4595  12.0412

          k = 0.0625 0.1875 0.5625 (  9438 PWs)   bands (ev):

    -9.0785  -9.0485  -9.0464  -9.0138  -8.9968  -2.3924   3.6379   5.2623
     5.9990   9.2619  10.6488  12.8827

          k = 0.0625 0.1875 0.6875 (  9437 PWs)   bands (ev):

    -9.0823  -9.0431  -9.0399  -9.0173  -8.9945  -1.7664   2.8162   4.7739
     5.3987   8.8733  10.0430  13.7726

          k = 0.0625 0.1875 0.8125 (  9446 PWs)   bands (ev):

    -9.0852  -9.0387  -9.0349  -9.0203  -8.9930  -1.0596   1.9530   4.4101
     5.0277   8.6012   9.6559  14.7022

          k = 0.0625 0.1875 0.9375 (  9463 PWs)   bands (ev):

    -9.0867  -9.0361  -9.0321  -9.0220  -8.9922  -0.3929   1.1934   4.2207
     4.8546   8.4614   9.4684  15.6480

          k = 0.0625 0.3125 0.3125 (  9459 PWs)   bands (ev):

    -9.0696  -9.0585  -9.0569  -9.0067  -9.0021  -3.0417   4.4377   5.8192
     7.6456  10.7739  11.1376  11.4951

          k = 0.0625 0.3125 0.4375 (  9446 PWs)   bands (ev):

    -9.0712  -9.0549  -9.0533  -9.0081  -9.0006  -2.6572   3.7319   5.2122
     7.1112  10.7102  11.0506  12.2725

          k = 0.0625 0.3125 0.5625 (  9447 PWs)   bands (ev):

    -9.0742  -9.0516  -9.0468  -9.0108  -8.9985  -2.1570   3.0834   4.6898
     6.2582  10.2731  11.4375  11.7711

          k = 0.0625 0.3125 0.6875 (  9445 PWs)   bands (ev):

    -9.0771  -9.0481  -9.0403  -9.0140  -8.9967  -1.5583   2.4636   4.2690
     5.4160   9.8931  11.1022  12.2970

          k = 0.0625 0.3125 0.8125 (  9438 PWs)   bands (ev):

    -9.0794  -9.0449  -9.0351  -9.0169  -8.9955  -0.9010   1.8374   3.9574
     4.7907   9.6275  10.7835  13.1175

          k = 0.0625 0.3125 0.9375 (  9456 PWs)   bands (ev):

    -9.0806  -9.0429  -9.0323  -9.0186  -8.9950  -0.3234   1.2824   3.7803
     4.4797   9.4918  10.6254  14.0253

          k = 0.0625 0.4375 0.4375 (  9442 PWs)   bands (ev):

    -9.0696  -9.0540  -9.0520  -9.0062  -9.0020  -2.2892   3.0967   4.6305
     7.0494  10.3314  11.8417  12.1011

          k = 0.0625 0.4375 0.5625 (  9445 PWs)   bands (ev):

    -9.0705  -9.0532  -9.0468  -9.0074  -9.0013  -1.8180   2.5402   4.1460
     6.4486  10.2723  11.5643  12.9136

          k = 0.0625 0.4375 0.6875 (  9442 PWs)   bands (ev):

    -9.0721  -9.0520  -9.0405  -9.0106  -8.9996  -1.2703   2.0631   3.7900
     5.5736  10.6261  11.2987  12.5277

          k = 0.0625 0.4375 0.8125 (  9470 PWs)   bands (ev):

    -9.0736  -9.0505  -9.0353  -9.0136  -8.9983  -0.7047   1.6548   3.5865
     4.7510  10.8091  11.5147  12.2979

          k = 0.0625 0.4375 0.9375 (  9460 PWs)   bands (ev):

    -9.0745  -9.0495  -9.0324  -9.0155  -8.9977  -0.2702   1.3506   3.5403
     4.2117  10.7463  11.8517  12.5843

          k = 0.0625 0.5625 0.5625 (  9453 PWs)   bands (ev):

    -9.0702  -9.0517  -9.0451  -9.0057  -9.0034  -1.3981   2.0726   3.7087
     6.3494   9.5374  12.8425  13.0689

          k = 0.0625 0.5625 0.6875 (  9451 PWs)   bands (ev):

    -9.0719  -9.0504  -9.0404  -9.0096  -9.0007  -0.9410   1.7105   3.4284
     5.7647   9.5132  12.6499  13.9120

          k = 0.0625 0.5625 0.8125 (  9464 PWs)   bands (ev):

    -9.0736  -9.0498  -9.0353  -9.0133  -8.9987  -0.5263   1.4686   3.3592
     4.9398  10.0149  12.3770  13.1833

          k = 0.0625 0.6875 0.6875 (  9469 PWs)   bands (ev):

    -9.0754  -9.0457  -9.0389  -9.0127  -8.9987  -0.6339   1.4625   3.2636
     5.7202   8.8328  12.9195  14.1096

          k = 0.0625 0.6875 0.8125 (  9460 PWs)   bands (ev):

    -9.0788  -9.0435  -9.0352  -9.0164  -8.9963  -0.4198   1.3308   3.3726
     5.2089   8.9077  11.6932  14.1083

          k = 0.0625 0.8125 0.8125 (  9453 PWs)   bands (ev):

    -9.0839  -9.0378  -9.0343  -9.0199  -8.9937  -0.3898   1.2414   3.6778
     5.2621   8.3197  10.4668  15.5805

          k = 0.1875 0.1875 0.1875 (  9477 PWs)   bands (ev):

    -9.0684  -9.0617  -9.0617  -9.0046  -9.0046  -3.4346   5.2289   7.5696
     7.5698  10.1110  11.1310  11.1319

          k = 0.1875 0.1875 0.3125 (  9456 PWs)   bands (ev):

    -9.0700  -9.0593  -9.0582  -9.0063  -9.0024  -3.1724   4.4466   7.0190
     7.2992  10.2224  10.9186  11.7232

          k = 0.1875 0.1875 0.4375 (  9445 PWs)   bands (ev):

    -9.0730  -9.0549  -9.0533  -9.0089  -8.9998  -2.7839   3.7337   6.4770
     6.4899   9.8675  11.5811  12.3694

          k = 0.1875 0.1875 0.5625 (  9442 PWs)   bands (ev):

    -9.0766  -9.0497  -9.0475  -9.0121  -8.9973  -2.2772   3.0876   5.5478
     6.0080   9.3013  11.4553  12.6383

          k = 0.1875 0.1875 0.6875 (  9438 PWs)   bands (ev):

    -9.0800  -9.0444  -9.0418  -9.0154  -8.9953  -1.6676   2.4705   4.6697
     5.6406   8.8210  10.9489  13.8327

          k = 0.1875 0.1875 0.8125 (  9442 PWs)   bands (ev):

    -9.0825  -9.0402  -9.0370  -9.0182  -8.9942  -0.9928   1.8298   4.0128
     5.3894   8.4877  10.6251  14.6905

          k = 0.1875 0.3125 0.3125 (  9453 PWs)   bands (ev):

    -9.0699  -9.0578  -9.0568  -9.0053  -9.0024  -2.9163   3.6917   6.5993
     7.4527  10.1502  11.0909  11.4144

          k = 0.1875 0.3125 0.4375 (  9457 PWs)   bands (ev):

    -9.0713  -9.0552  -9.0535  -9.0066  -9.0005  -2.5395   3.0241   6.0111
     7.0012  10.2867  10.9579  11.8803

          k = 0.1875 0.3125 0.5625 (  9453 PWs)   bands (ev):

    -9.0736  -9.0520  -9.0482  -9.0092  -8.9985  -2.0539   2.4604   5.3622
     6.2801   9.8441  11.5102  12.5980

          k = 0.1875 0.3125 0.6875 (  9454 PWs)   bands (ev):

    -9.0759  -9.0485  -9.0426  -9.0121  -8.9971  -1.4839   1.9973   4.5972
     5.7064   9.3864  12.0006  12.4692

          k = 0.1875 0.3125 0.8125 (  9445 PWs)   bands (ev):

    -9.0778  -9.0454  -9.0379  -9.0147  -8.9965  -0.8864   1.6163   3.8465
     5.3667   9.0680  11.8226  13.2161

          k = 0.1875 0.4375 0.4375 (  9460 PWs)   bands (ev):

    -9.0704  -9.0538  -9.0527  -9.0048  -9.0015  -2.1849   2.4064   5.4820
     7.0366  10.2806  11.3366  11.3782

          k = 0.1875 0.4375 0.5625 (  9458 PWs)   bands (ev):

    -9.0710  -9.0532  -9.0484  -9.0059  -9.0008  -1.7408   1.9170   4.9572
     6.5063  10.3484  10.8866  12.4581

          k = 0.1875 0.4375 0.6875 (  9458 PWs)   bands (ev):

    -9.0721  -9.0521  -9.0429  -9.0087  -8.9995  -1.2499   1.5847   4.4236
     5.7663  10.3891  10.9326  13.5230

          k = 0.1875 0.4375 0.8125 (  9451 PWs)   bands (ev):

    -9.0730  -9.0508  -9.0381  -9.0116  -8.9989  -0.7999   1.4421   3.8397
     5.2019  10.1474  11.6085  13.3019

          k = 0.1875 0.5625 0.5625 (  9449 PWs)   bands (ev):

    -9.0707  -9.0521  -9.0470  -9.0046  -9.0023  -1.3760   1.5274   4.5356
     6.4249   9.6738  12.1083  12.1445

          k = 0.1875 0.5625 0.6875 (  9464 PWs)   bands (ev):

    -9.0719  -9.0512  -9.0428  -9.0082  -9.0002  -1.0320   1.3559   4.1606
     5.8936   9.6610  11.8259  13.4925

          k = 0.1875 0.6875 0.6875 (  9465 PWs)   bands (ev):

    -9.0748  -9.0473  -9.0415  -9.0113  -8.9983  -0.9081   1.3851   3.9337
     5.8322   9.0007  12.9180  13.2902

          k = 0.3125 0.3125 0.3125 (  9456 PWs)   bands (ev):

    -9.0704  -9.0563  -9.0563  -9.0031  -9.0031  -2.6696   2.9519   7.1207
     7.1208   9.7031  11.1731  11.1733

          k = 0.3125 0.3125 0.4375 (  9467 PWs)   bands (ev):

    -9.0713  -9.0550  -9.0536  -9.0044  -9.0007  -2.3112   2.3194   6.7319
     6.7906   9.9221  10.8298  11.4500

          k = 0.3125 0.3125 0.5625 (  9454 PWs)   bands (ev):

    -9.0725  -9.0528  -9.0498  -9.0065  -8.9990  -1.8615   1.8255   5.9046
     6.3588   9.7726  11.2978  11.9098

          k = 0.3125 0.3125 0.6875 (  9455 PWs)   bands (ev):

    -9.0738  -9.0500  -9.0455  -9.0089  -8.9982  -1.3636   1.5003   4.8866
     6.0500   9.3304  12.2508  12.5318

          k = 0.3125 0.4375 0.4375 (  9461 PWs)   bands (ev):

    -9.0715  -9.0536  -9.0534  -9.0027  -9.0011  -1.9902   1.7397   6.3896
     6.9895   9.8656  11.0029  11.0148

          k = 0.3125 0.4375 0.5625 (  9464 PWs)   bands (ev):

    -9.0717  -9.0532  -9.0505  -9.0037  -9.0003  -1.6155   1.3405   5.8596
     6.6012  10.1496  10.6435  11.6235

          k = 0.3125 0.4375 0.6875 (  9463 PWs)   bands (ev):

    -9.0718  -9.0523  -9.0466  -9.0059  -8.9999  -1.2637   1.1921   5.0705
     6.1637   9.9414  11.0717  12.5175

          k = 0.3125 0.5625 0.5625 (  9477 PWs)   bands (ev):

    -9.0715  -9.0526  -9.0497  -9.0031  -9.0010  -1.3875   1.1016   5.5396
     6.5620   9.8853  11.1781  11.5183

          k = 0.4375 0.4375 0.4375 (  9459 PWs)   bands (ev):

    -9.0722  -9.0534  -9.0534  -9.0010  -9.0010  -1.7412   1.2400   6.8845
     6.8845   9.4887  10.9097  10.9097

          k = 0.4375 0.4375 0.5625 (  9461 PWs)   bands (ev):

    -9.0721  -9.0531  -9.0521  -9.0017  -9.0004  -1.5108   0.9987   6.4658
     6.7295   9.7847  10.7526  11.0883

     the Fermi energy is     5.5188 ev

!    total energy              =    -317.35027784 Ry
     total all-electron energy =     -4373.657720 Ry
     estimated scf accuracy    <       0.00000002 Ry
     smearing contrib. (-TS)   =      -0.00133689 Ry
     internal energy E=F+TS    =    -317.34894095 Ry

     The total energy is F=E-TS. E is the sum of the following terms:
     one-electron contribution =    -124.50802587 Ry
     hartree contribution      =      75.74612436 Ry
     xc contribution           =     -40.61517066 Ry
     ewald contribution        =     -82.24853881 Ry
     one-center paw contrib.   =    -145.72332997 Ry

     convergence has been achieved in  17 iterations

     Forces acting on atoms (cartesian axes, Ry/au):

     atom    1 type  2   force =    -0.00000000    0.00000000   -0.00000000
     atom    2 type  1   force =     0.00000000    0.00000000    0.00000000

     Total force =     0.000000     Total SCF correction =     0.000000


     Computing stress (Cartesian axis) and pressure

          total   stress  (Ry/bohr**3)                   (kbar)     P=       71.14
   0.00048357  -0.00000000  -0.00000000           71.14       -0.00       -0.00
  -0.00000000   0.00048357  -0.00000000           -0.00       71.14       -0.00
  -0.00000000  -0.00000000   0.00048357           -0.00       -0.00       71.14


     Writing all to output data dir /home/nico-sachs/source/q-e/tempdir/al.save/ :
     XML data file, charge density, pseudopotentials, collected wavefunctions

     init_run     :      6.09s CPU      6.34s WALL (       1 calls)
     electrons    :    420.97s CPU    427.26s WALL (       1 calls)
     forces       :      2.42s CPU      2.55s WALL (       1 calls)
     stress       :     10.74s CPU     11.17s WALL (       1 calls)

     Called by init_run:
     wfcinit      :      4.35s CPU      4.40s WALL (       1 calls)
     potinit      :      0.41s CPU      0.47s WALL (       1 calls)
     hinit0       :      0.94s CPU      0.95s WALL (       1 calls)

     Called by electrons:
     c_bands      :    375.07s CPU    376.24s WALL (      18 calls)
     sum_band     :     33.86s CPU     36.67s WALL (      18 calls)
     v_of_rho     :      1.16s CPU      1.18s WALL (      18 calls)
     newd         :      5.74s CPU      8.17s WALL (      18 calls)
     PAW_pot      :      5.57s CPU      5.62s WALL (      18 calls)
     mix_rho      :      0.19s CPU      0.19s WALL (      18 calls)

     Called by c_bands:
     init_us_2    :      6.55s CPU      6.58s WALL (    2340 calls)
     ccgdiagg     :    315.19s CPU    316.25s WALL (    1080 calls)
     wfcrot       :     60.19s CPU     60.31s WALL (    1020 calls)

     Called by *cgdiagg:
     h_psi        :    244.74s CPU    245.43s WALL (   47756 calls)
     s_psi        :     63.13s CPU     63.38s WALL (   94492 calls)

     Called by h_psi:
     h_psi:calbec :     46.25s CPU     46.37s WALL (   47756 calls)
     vloc_psi     :    160.32s CPU    160.78s WALL (   47756 calls)
                                        0.00s GPU  (   47756 calls)
     add_vuspsi   :     37.10s CPU     37.22s WALL (   47756 calls)
     hs_1psi      :    228.72s CPU    229.44s WALL (   46736 calls)
     s_1psi       :     64.16s CPU     64.40s WALL (   46736 calls)

     General routines
     calbec       :     97.09s CPU     97.41s WALL (   96592 calls)
     fft          :      0.66s CPU      0.67s WALL (     224 calls)
     ffts         :      0.04s CPU      0.04s WALL (      18 calls)
     fftw         :    146.55s CPU    146.91s WALL (  131032 calls)

     Parallel routines

     PWSCF        :   7m20.42s CPU   7m27.62s WALL


   This run was terminated on:  16: 4:53  26Jan2026            

=------------------------------------------------------------------------------=
   JOB DONE.
=------------------------------------------------------------------------------=
