
     Program PWSCF v.7.5 starts on 27Jan2026 at 14:16:58 

     This program is part of the open-source Quantum ESPRESSO suite
     for quantum simulation of materials; please cite
         "P. Giannozzi et al., J. Phys.:Condens. Matter 21 395502 (2009);
         "P. Giannozzi et al., J. Phys.:Condens. Matter 29 465901 (2017);
         "P. Giannozzi et al., J. Chem. Phys. 152 154105 (2020);
          URL http://www.quantum-espresso.org", 
     in publications or presentations arising from this work. More details at
     http://www.quantum-espresso.org/quote

     Parallel version (MPI), running on     4 processors

     MPI processes distributed on     1 nodes
     23583 MiB available memory on the printing compute node when the environment starts

     Waiting for input...
     Reading input from standard input

     Current dimensions of program PWSCF are:
     Max number of different atomic species (ntypx) = 10
     Max number of k-points (npk) =  40000
     Max angular momentum in pseudopotentials (lmaxx) =  4
     file Ga.pbe-dn-kjpaw_psl.1.0.0.UPF: wavefunction(s)  4S renormalized

     R & G space division:  proc/nbgrp/npool/nimage =       4
     Subspace diagonalization in iterative solution of the eigenvalue problem:
     a serial algorithm will be used


     Parallelization info
     --------------------
     sticks:   dense  smooth     PW     G-vecs:    dense   smooth      PW
     Min         250     228     63                10432     8896    1397
     Max         251     229     64                10439     8901    1406
     Sum        1003     913    253                41745    35591    5599

     Using Slab Decomposition



     bravais-lattice index     =            4
     lattice parameter (alat)  =       6.0263  a.u.
     unit-cell volume          =     308.1662 (a.u.)^3
     number of atoms/cell      =            4
     number of atomic types    =            2
     number of electrons       =        36.00
     number of Kohn-Sham states=           18
     kinetic-energy cutoff     =      90.0000  Ry
     charge density cutoff     =     400.0000  Ry
     scf convergence threshold =      1.0E-06
     mixing beta               =       0.7000
     number of iterations used =            8  plain     mixing
     Exchange-correlation= PBE
                           (   1   4   3   4   0   0   0)

     celldm(1)=   6.026337  celldm(2)=   0.000000  celldm(3)=   1.625902
     celldm(4)=   0.000000  celldm(5)=   0.000000  celldm(6)=   0.000000

     crystal axes: (cart. coord. in units of alat)
               a(1) = (   1.000000   0.000000   0.000000 )  
               a(2) = (  -0.500000   0.866025   0.000000 )  
               a(3) = (   0.000000   0.000000   1.625902 )  

     reciprocal axes: (cart. coord. in units 2 pi/alat)
               b(1) = (  1.000000  0.577350 -0.000000 )  
               b(2) = (  0.000000  1.154701  0.000000 )  
               b(3) = (  0.000000 -0.000000  0.615043 )  


     PseudoPot. # 1 for Ga read from file:
     /home/nico-sachs/source/q-e/SSSP_1.3.0_PBE_efficiency/Ga.pbe-dn-kjpaw_psl.1.0.0.UPF
     MD5 check sum: a27b4342b1af7e5f338de752e9ed7044
     Pseudo is Projector augmented-wave + core cor, Zval = 13.0
     Generated using "atomic" code by A. Dal Corso  v.5.1
     Shape of augmentation charge: PSQ
     Using radial grid of 1205 points,  6 beta functions with: 
                l(1) =   0
                l(2) =   0
                l(3) =   1
                l(4) =   1
                l(5) =   2
                l(6) =   2
     Q(r) pseudized with 0 coefficients 


     PseudoPot. # 2 for N  read from file:
     /home/nico-sachs/source/q-e/SSSP_1.3.0_PBE_efficiency/N.pbe-n-radius_5.UPF
     MD5 check sum: 16739722b17309cd8fe442a2ace49922
     Pseudo is Ultrasoft + core correction, Zval =  5.0
     Generated using "atomic" code by A. Dal Corso  v.5.1
     Using radial grid of 1085 points,  4 beta functions with: 
                l(1) =   0
                l(2) =   0
                l(3) =   1
                l(4) =   1
     Q(r) pseudized with 0 coefficients 


     atomic species   valence    mass     pseudopotential
     Ga               13.00    69.72300     Ga( 1.00)
     N                 5.00    14.00700     N ( 1.00)

     12 Sym. Ops. (no inversion) found ( 6 have fractional translation)



   Cartesian axes

     site n.     atom                  positions (alat units)
         1        Ga     tau(   1) = (  -0.0000000   0.5773503   0.0000000  )
         2        Ga     tau(   2) = (   0.5000000   0.2886751   0.8129508  )
         3        N      tau(   3) = (  -0.0000000   0.5773503   0.6097131  )
         4        N      tau(   4) = (   0.5000000   0.2886751   1.4226638  )

     number of k points=    21
                       cart. coord. in units 2pi/alat
        k(    1) = (   0.0000000   0.0000000   0.0000000), wk =   0.0138889
        k(    2) = (   0.0000000   0.0000000   0.1537608), wk =   0.0277778
        k(    3) = (   0.0000000   0.0000000  -0.3075217), wk =   0.0138889
        k(    4) = (   0.0000000   0.1924501   0.0000000), wk =   0.0833333
        k(    5) = (   0.0000000   0.1924501   0.1537608), wk =   0.1666667
        k(    6) = (   0.0000000   0.1924501  -0.3075217), wk =   0.0833333
        k(    7) = (   0.0000000   0.3849002   0.0000000), wk =   0.0833333
        k(    8) = (   0.0000000   0.3849002   0.1537608), wk =   0.1666667
        k(    9) = (   0.0000000   0.3849002  -0.3075217), wk =   0.0833333
        k(   10) = (   0.0000000  -0.5773503   0.0000000), wk =   0.0416667
        k(   11) = (   0.0000000  -0.5773503   0.1537608), wk =   0.0833333
        k(   12) = (   0.0000000  -0.5773503  -0.3075217), wk =   0.0416667
        k(   13) = (   0.1666667   0.2886751   0.0000000), wk =   0.0833333
        k(   14) = (   0.1666667   0.2886751   0.1537608), wk =   0.1666667
        k(   15) = (   0.1666667   0.2886751  -0.3075217), wk =   0.0833333
        k(   16) = (   0.1666667   0.4811252   0.0000000), wk =   0.1666667
        k(   17) = (   0.1666667   0.4811252   0.1537608), wk =   0.3333333
        k(   18) = (   0.1666667   0.4811252  -0.3075217), wk =   0.1666667
        k(   19) = (   0.3333333   0.5773503   0.0000000), wk =   0.0277778
        k(   20) = (   0.3333333   0.5773503   0.1537608), wk =   0.0555556
        k(   21) = (   0.3333333   0.5773503  -0.3075217), wk =   0.0277778

     Dense  grid:    41745 G-vectors     FFT dimensions: (  40,  40,  64)

     Smooth grid:    35591 G-vectors     FFT dimensions: (  40,  40,  60)

     Estimated max dynamical RAM per process >      49.21 MB

     Estimated total dynamical RAM >     196.85 MB

     Initial potential from superposition of free atoms

     starting charge      35.9941, renormalised to      36.0000
     Starting wfcs are   26 randomized atomic wfcs
     Checking if some PAW data can be deallocated... 

     total cpu time spent up to now is        1.6 secs

     Self-consistent Calculation

     iteration #  1     ecut=    90.00 Ry     beta= 0.70
     CG style diagonalization
     ethr =  1.00E-02,  avg # of iterations =  2.0

     total cpu time spent up to now is        3.1 secs

     total energy              =    -595.58042431 Ry
     estimated scf accuracy    <       1.11376316 Ry

     iteration #  2     ecut=    90.00 Ry     beta= 0.70
     CG style diagonalization
     ethr =  3.09E-03,  avg # of iterations =  4.8

     total cpu time spent up to now is        6.2 secs

     total energy              =    -596.02825131 Ry
     estimated scf accuracy    <       1.07650284 Ry

     iteration #  3     ecut=    90.00 Ry     beta= 0.70
     CG style diagonalization
     ethr =  2.99E-03,  avg # of iterations =  3.8

     total cpu time spent up to now is        8.7 secs

     total energy              =    -596.21461534 Ry
     estimated scf accuracy    <       0.00934590 Ry

     iteration #  4     ecut=    90.00 Ry     beta= 0.70
     CG style diagonalization
     c_bands:  1 eigenvalues not converged
     c_bands:  1 eigenvalues not converged
     c_bands:  1 eigenvalues not converged
     c_bands:  2 eigenvalues not converged
     c_bands:  1 eigenvalues not converged
     c_bands:  1 eigenvalues not converged
     c_bands:  1 eigenvalues not converged
     c_bands:  1 eigenvalues not converged
     c_bands:  1 eigenvalues not converged
     c_bands:  1 eigenvalues not converged
     c_bands:  1 eigenvalues not converged
     ethr =  2.60E-05,  avg # of iterations =  9.9

     total cpu time spent up to now is       16.2 secs

     total energy              =    -596.35951178 Ry
     estimated scf accuracy    <       0.03320181 Ry

     iteration #  5     ecut=    90.00 Ry     beta= 0.70
     CG style diagonalization
     ethr =  2.60E-05,  avg # of iterations =  4.0

     total cpu time spent up to now is       19.4 secs

     total energy              =    -596.36436201 Ry
     estimated scf accuracy    <       0.05007404 Ry

     iteration #  6     ecut=    90.00 Ry     beta= 0.70
     CG style diagonalization
     ethr =  2.60E-05,  avg # of iterations =  5.1

     total cpu time spent up to now is       23.1 secs

     total energy              =    -596.36708420 Ry
     estimated scf accuracy    <       0.13561107 Ry

     iteration #  7     ecut=    90.00 Ry     beta= 0.70
     CG style diagonalization
     ethr =  2.60E-05,  avg # of iterations =  3.9

     total cpu time spent up to now is       26.0 secs

     total energy              =    -596.36879842 Ry
     estimated scf accuracy    <       0.02527684 Ry

     iteration #  8     ecut=    90.00 Ry     beta= 0.70
     CG style diagonalization
     ethr =  2.60E-05,  avg # of iterations =  3.1

     total cpu time spent up to now is       28.5 secs

     total energy              =    -596.37102910 Ry
     estimated scf accuracy    <       0.02083564 Ry

     iteration #  9     ecut=    90.00 Ry     beta= 0.70
     CG style diagonalization
     ethr =  2.60E-05,  avg # of iterations =  3.0

     total cpu time spent up to now is       31.3 secs

     total energy              =    -596.36698600 Ry
     estimated scf accuracy    <       0.03720537 Ry

     iteration # 10     ecut=    90.00 Ry     beta= 0.70
     CG style diagonalization
     ethr =  2.60E-05,  avg # of iterations =  3.5

     total cpu time spent up to now is       34.2 secs

     total energy              =    -596.36849063 Ry
     estimated scf accuracy    <       0.00023441 Ry

     iteration # 11     ecut=    90.00 Ry     beta= 0.70
     CG style diagonalization
     c_bands:  3 eigenvalues not converged
     c_bands:  1 eigenvalues not converged
     c_bands:  1 eigenvalues not converged
     c_bands:  1 eigenvalues not converged
     ethr =  6.51E-07,  avg # of iterations =  9.9

     total cpu time spent up to now is       42.5 secs

     total energy              =    -596.36860668 Ry
     estimated scf accuracy    <       0.01241001 Ry

     iteration # 12     ecut=    90.00 Ry     beta= 0.70
     CG style diagonalization
     c_bands:  1 eigenvalues not converged
     ethr =  6.51E-07,  avg # of iterations =  6.3

     total cpu time spent up to now is       48.2 secs

     total energy              =    -596.36919770 Ry
     estimated scf accuracy    <       0.00013998 Ry

     iteration # 13     ecut=    90.00 Ry     beta= 0.70
     CG style diagonalization
     ethr =  3.89E-07,  avg # of iterations =  6.7

     total cpu time spent up to now is       53.8 secs

     total energy              =    -596.36937008 Ry
     estimated scf accuracy    <       0.00073529 Ry

     iteration # 14     ecut=    90.00 Ry     beta= 0.70
     CG style diagonalization
     ethr =  3.89E-07,  avg # of iterations =  4.6

     total cpu time spent up to now is       57.6 secs

     total energy              =    -596.36939615 Ry
     estimated scf accuracy    <       0.00051479 Ry

     iteration # 15     ecut=    90.00 Ry     beta= 0.70
     CG style diagonalization
     ethr =  3.89E-07,  avg # of iterations =  3.3

     total cpu time spent up to now is       60.1 secs

     total energy              =    -596.36932229 Ry
     estimated scf accuracy    <       0.00036299 Ry

     iteration # 16     ecut=    90.00 Ry     beta= 0.70
     CG style diagonalization
     ethr =  3.89E-07,  avg # of iterations =  4.4

     total cpu time spent up to now is       63.4 secs

     total energy              =    -596.36935400 Ry
     estimated scf accuracy    <       0.00005640 Ry

     iteration # 17     ecut=    90.00 Ry     beta= 0.70
     CG style diagonalization
     ethr =  1.57E-07,  avg # of iterations =  4.6

     total cpu time spent up to now is       66.7 secs

     total energy              =    -596.36937952 Ry
     estimated scf accuracy    <       0.00005117 Ry

     iteration # 18     ecut=    90.00 Ry     beta= 0.70
     CG style diagonalization
     ethr =  1.42E-07,  avg # of iterations =  3.4

     total cpu time spent up to now is       69.3 secs

     total energy              =    -596.36938551 Ry
     estimated scf accuracy    <       0.00005092 Ry

     iteration # 19     ecut=    90.00 Ry     beta= 0.70
     CG style diagonalization
     ethr =  1.41E-07,  avg # of iterations =  3.1

     total cpu time spent up to now is       71.6 secs

     total energy              =    -596.36939426 Ry
     estimated scf accuracy    <       0.00005151 Ry

     iteration # 20     ecut=    90.00 Ry     beta= 0.70
     CG style diagonalization
     ethr =  1.41E-07,  avg # of iterations =  3.0

     total cpu time spent up to now is       73.6 secs

     total energy              =    -596.36965812 Ry
     estimated scf accuracy    <       0.00006019 Ry

     iteration # 21     ecut=    90.00 Ry     beta= 0.70
     CG style diagonalization
     ethr =  1.41E-07,  avg # of iterations =  7.5

     total cpu time spent up to now is       78.2 secs

     total energy              =    -596.37035333 Ry
     estimated scf accuracy    <       0.00135393 Ry

     iteration # 22     ecut=    90.00 Ry     beta= 0.70
     CG style diagonalization
     c_bands:  1 eigenvalues not converged
     ethr =  1.41E-07,  avg # of iterations =  7.2

     total cpu time spent up to now is       82.6 secs

     total energy              =    -596.36924068 Ry
     estimated scf accuracy    <       0.00338218 Ry

     iteration # 23     ecut=    90.00 Ry     beta= 0.70
     CG style diagonalization
     ethr =  1.41E-07,  avg # of iterations =  6.3

     total cpu time spent up to now is       86.4 secs

     total energy              =    -596.37027233 Ry
     estimated scf accuracy    <       0.00064604 Ry

     iteration # 24     ecut=    90.00 Ry     beta= 0.70
     CG style diagonalization
     ethr =  1.41E-07,  avg # of iterations =  6.4

     total cpu time spent up to now is       90.9 secs

     total energy              =    -596.37067833 Ry
     estimated scf accuracy    <       0.00345810 Ry

     iteration # 25     ecut=    90.00 Ry     beta= 0.70
     CG style diagonalization
     ethr =  1.41E-07,  avg # of iterations =  5.4

     total cpu time spent up to now is       94.8 secs

     total energy              =    -596.37091247 Ry
     estimated scf accuracy    <       0.00441595 Ry

     iteration # 26     ecut=    90.00 Ry     beta= 0.70
     CG style diagonalization
     ethr =  1.41E-07,  avg # of iterations =  4.6

     total cpu time spent up to now is       98.1 secs

     total energy              =    -596.36847882 Ry
     estimated scf accuracy    <       0.00521164 Ry

     iteration # 27     ecut=    90.00 Ry     beta= 0.70
     CG style diagonalization
     c_bands:  1 eigenvalues not converged
     c_bands:  1 eigenvalues not converged
     c_bands:  2 eigenvalues not converged
     c_bands:  3 eigenvalues not converged
     c_bands:  1 eigenvalues not converged
     c_bands:  1 eigenvalues not converged
     c_bands:  1 eigenvalues not converged
     c_bands:  1 eigenvalues not converged
     c_bands:  1 eigenvalues not converged
     c_bands:  2 eigenvalues not converged
     c_bands:  2 eigenvalues not converged
     c_bands:  1 eigenvalues not converged
     c_bands:  1 eigenvalues not converged
     c_bands:  1 eigenvalues not converged
     c_bands:  1 eigenvalues not converged
     ethr =  1.41E-07,  avg # of iterations = 12.2

     total cpu time spent up to now is      106.4 secs

     total energy              =    -596.36943828 Ry
     estimated scf accuracy    <       0.00032192 Ry

     iteration # 28     ecut=    90.00 Ry     beta= 0.70
     CG style diagonalization
     ethr =  1.41E-07,  avg # of iterations =  6.7

     total cpu time spent up to now is      111.1 secs

     total energy              =    -596.37001047 Ry
     estimated scf accuracy    <       0.00079694 Ry

     iteration # 29     ecut=    90.00 Ry     beta= 0.70
     CG style diagonalization
     c_bands:  1 eigenvalues not converged
     ethr =  1.41E-07,  avg # of iterations =  7.5

     total cpu time spent up to now is      116.3 secs

     total energy              =    -596.36921472 Ry
     estimated scf accuracy    <       0.00278059 Ry

     iteration # 30     ecut=    90.00 Ry     beta= 0.70
     CG style diagonalization
     ethr =  1.41E-07,  avg # of iterations =  5.9

     total cpu time spent up to now is      120.5 secs

     total energy              =    -596.36924001 Ry
     estimated scf accuracy    <       0.00038462 Ry

     iteration # 31     ecut=    90.00 Ry     beta= 0.70
     CG style diagonalization
     ethr =  1.41E-07,  avg # of iterations =  6.1

     total cpu time spent up to now is      124.4 secs

     total energy              =    -596.36932676 Ry
     estimated scf accuracy    <       0.00000248 Ry

     iteration # 32     ecut=    90.00 Ry     beta= 0.70
     CG style diagonalization
     c_bands:  2 eigenvalues not converged
     c_bands:  1 eigenvalues not converged
     c_bands:  2 eigenvalues not converged
     c_bands:  2 eigenvalues not converged
     c_bands:  4 eigenvalues not converged
     c_bands:  4 eigenvalues not converged
     c_bands:  4 eigenvalues not converged
     c_bands:  1 eigenvalues not converged
     c_bands:  4 eigenvalues not converged
     c_bands:  2 eigenvalues not converged
     c_bands:  3 eigenvalues not converged
     c_bands:  2 eigenvalues not converged
     c_bands:  2 eigenvalues not converged
     c_bands:  2 eigenvalues not converged
     c_bands:  2 eigenvalues not converged
     c_bands:  3 eigenvalues not converged
     c_bands:  1 eigenvalues not converged
     c_bands:  5 eigenvalues not converged
     c_bands:  3 eigenvalues not converged
     c_bands:  3 eigenvalues not converged
     c_bands:  2 eigenvalues not converged
     ethr =  6.88E-09,  avg # of iterations = 12.9

     total cpu time spent up to now is      131.9 secs

     total energy              =    -596.36938092 Ry
     estimated scf accuracy    <       0.00004272 Ry

     iteration # 33     ecut=    90.00 Ry     beta= 0.70
     CG style diagonalization
     ethr =  6.88E-09,  avg # of iterations =  5.8

     total cpu time spent up to now is      135.5 secs

     total energy              =    -596.36938314 Ry
     estimated scf accuracy    <       0.00001753 Ry

     iteration # 34     ecut=    90.00 Ry     beta= 0.70
     CG style diagonalization
     ethr =  6.88E-09,  avg # of iterations =  3.6

     total cpu time spent up to now is      137.9 secs

     total energy              =    -596.36938230 Ry
     estimated scf accuracy    <       0.00001472 Ry

     iteration # 35     ecut=    90.00 Ry     beta= 0.70
     CG style diagonalization
     ethr =  6.88E-09,  avg # of iterations =  3.3

     total cpu time spent up to now is      140.1 secs

     total energy              =    -596.36937896 Ry
     estimated scf accuracy    <       0.00001036 Ry

     iteration # 36     ecut=    90.00 Ry     beta= 0.70
     CG style diagonalization
     ethr =  6.88E-09,  avg # of iterations =  5.1

     total cpu time spent up to now is      143.4 secs

     End of self-consistent calculation

          k = 0.0000 0.0000 0.0000 (  4427 PWs)   bands (ev):

    -6.2588  -5.3484  -3.7535  -3.7325  -3.7325  -3.6705  -3.6705  -3.4844
    -3.4844  -3.3850  -3.3850  -2.1314   2.6386   8.6791   8.6791   9.6643
     9.7266   9.7266

          k = 0.0000 0.0000 0.1538 (  4422 PWs)   bands (ev):

    -6.0831  -5.4214  -3.7288  -3.7288  -3.6965  -3.6846  -3.6846  -3.4649
    -3.4649  -3.3950  -3.3950  -2.6830   3.6933   8.1713   8.8257   8.8257
     9.5665   9.5665

          k = 0.0000 0.0000-0.3075 (  4386 PWs)   bands (ev):

    -5.6968  -5.6968  -3.7117  -3.7117  -3.7117  -3.7117  -3.4254  -3.4254
    -3.4254  -3.4254  -3.4006  -3.4006   5.8637   5.8637   9.1893   9.1893
     9.1893   9.1893

          k = 0.0000 0.1925 0.0000 (  4448 PWs)   bands (ev):

    -6.0071  -5.2901  -3.7206  -3.6988  -3.6561  -3.6211  -3.6200  -3.5055
    -3.4831  -3.4213  -3.3795  -1.9469   3.0230   7.0029   8.0058   8.1721
     9.3771   9.4899

          k = 0.0000 0.1925 0.1538 (  4432 PWs)   bands (ev):

    -5.8562  -5.3398  -3.7111  -3.6910  -3.6623  -3.6350  -3.5968  -3.4681
    -3.4649  -3.4220  -3.3919  -2.4599   3.9352   7.1190   7.4493   8.3489
     9.0117   9.2781

          k = 0.0000 0.1925-0.3075 (  4420 PWs)   bands (ev):

    -5.5430  -5.5430  -3.6864  -3.6864  -3.6665  -3.6665  -3.5095  -3.5095
    -3.4256  -3.4256  -3.1611  -3.1611   5.6996   5.6996   8.0833   8.0833
     8.7963   8.7963

          k = 0.0000 0.3849 0.0000 (  4436 PWs)   bands (ev):

    -5.5460  -5.2116  -3.6832  -3.6640  -3.5860  -3.5228  -3.5209  -3.4871
    -3.4383  -3.3685  -3.0683  -1.5850   3.7566   4.8351   5.8335   7.3416
     8.4339   8.9915

          k = 0.0000 0.3849 0.1538 (  4440 PWs)   bands (ev):

    -5.4610  -5.2251  -3.6907  -3.6419  -3.6181  -3.5393  -3.5223  -3.4704
    -3.4311  -3.3824  -2.9519  -1.9406   3.7684   5.0298   6.0367   7.5546
     8.5359   8.7137

          k = 0.0000 0.3849-0.3075 (  4454 PWs)   bands (ev):

    -5.3057  -5.3057  -3.6745  -3.6745  -3.5891  -3.5891  -3.4884  -3.4884
    -3.4099  -3.4099  -2.5584  -2.5584   4.2526   4.2526   7.6321   7.6321
     8.1028   8.1028

          k = 0.0000-0.5774 0.0000 (  4474 PWs)   bands (ev):

    -5.3662  -5.1906  -3.6863  -3.6622  -3.5680  -3.5244  -3.4766  -3.4703
    -3.3946  -3.3596  -2.2472  -1.7085   3.2798   4.4591   5.4921   6.9799
     7.4898   8.7477

          k = 0.0000-0.5774 0.1538 (  4456 PWs)   bands (ev):

    -5.3150  -5.1908  -3.6988  -3.6332  -3.6106  -3.5275  -3.4985  -3.4300
    -3.3932  -3.3720  -2.1918  -1.8037   3.0122   3.8644   6.4151   7.2059
     8.0185   8.4462

          k = 0.0000-0.5774-0.3075 (  4452 PWs)   bands (ev):

    -5.2267  -5.2267  -3.6884  -3.6884  -3.5632  -3.5632  -3.4540  -3.4540
    -3.3872  -3.3872  -2.0208  -2.0208   3.1291   3.1291   7.7897   7.7897
     7.8158   7.8158

          k = 0.1667 0.2887 0.0000 (  4443 PWs)   bands (ev):

    -5.6502  -5.2269  -3.6878  -3.6651  -3.5966  -3.5726  -3.5244  -3.4635
    -3.4527  -3.4068  -3.2476  -1.6526   3.6602   5.6787   6.0561   7.3251
     8.7168   8.8017

          k = 0.1667 0.2887 0.1538 (  4445 PWs)   bands (ev):

    -5.5474  -5.2477  -3.6705  -3.6674  -3.6109  -3.5974  -3.5034  -3.4974
    -3.4299  -3.4139  -3.1405  -2.0718   4.0811   5.7194   6.2994   7.2871
     8.4081   8.7914

          k = 0.1667 0.2887-0.3075 (  4448 PWs)   bands (ev):

    -5.3540  -5.3540  -3.6504  -3.6504  -3.6230  -3.6230  -3.5193  -3.5193
    -3.4151  -3.4151  -2.7470  -2.7470   4.8882   4.8882   7.6065   7.6065
     7.9168   7.9168

          k = 0.1667 0.4811 0.0000 (  4446 PWs)   bands (ev):

    -5.3554  -5.1957  -3.7091  -3.6266  -3.5386  -3.5235  -3.5023  -3.4820
    -3.4202  -3.3862  -2.4106  -1.4999   3.7174   4.6722   5.5242   6.0984
     7.6986   7.9662

          k = 0.1667 0.4811 0.1538 (  4450 PWs)   bands (ev):

    -5.3053  -5.1930  -3.6787  -3.6437  -3.5894  -3.5252  -3.5033  -3.4610
    -3.4127  -3.4027  -2.3167  -1.6716   3.4527   4.2399   5.9661   6.7333
     7.5278   8.2193

          k = 0.1667 0.4811-0.3075 (  4450 PWs)   bands (ev):

    -5.2220  -5.2220  -3.6533  -3.6533  -3.5831  -3.5831  -3.4814  -3.4814
    -3.4052  -3.4052  -2.0350  -2.0350   3.5822   3.5822   6.6763   6.6763
     8.0610   8.0610

          k = 0.3333 0.5774 0.0000 (  4449 PWs)   bands (ev):

    -5.2317  -5.2317  -3.7381  -3.5309  -3.5309  -3.5125  -3.4987  -3.4987
    -3.4517  -3.4044  -1.7133  -1.7133   4.3959   4.3959   4.4462   6.7171
     6.7171   7.0347

          k = 0.3333 0.5774 0.1538 (  4449 PWs)   bands (ev):

    -5.2090  -5.2090  -3.6979  -3.5844  -3.5844  -3.5214  -3.4581  -3.4581
    -3.4561  -3.4403  -1.7077  -1.7077   3.9084   3.9084   4.7446   6.5292
     7.5199   7.5199

          k = 0.3333 0.5774-0.3075 (  4494 PWs)   bands (ev):

    -5.1858  -5.1858  -3.6169  -3.6169  -3.5989  -3.5989  -3.4635  -3.4635
    -3.4390  -3.4390  -1.7018  -1.7018   3.5648   3.5648   5.5445   5.5445
     8.2342   8.2342

     highest occupied level (ev):     9.7266

!    total energy              =    -596.36938101 Ry
     estimated scf accuracy    <       0.00000018 Ry

     The total energy is the sum of the following terms:
     one-electron contribution =    -181.38428503 Ry
     hartree contribution      =     130.15819767 Ry
     xc contribution           =     -87.88163161 Ry
     ewald contribution        =    -233.28276133 Ry
     one-center paw contrib.   =    -223.97890071 Ry

     convergence has been achieved in  36 iterations

     Forces acting on atoms (cartesian axes, Ry/au):

     atom    1 type  1   force =     0.00000000   -0.00000000   -0.00485216
     atom    2 type  1   force =     0.00000000    0.00000000   -0.00485216
     atom    3 type  2   force =     0.00000000    0.00000000    0.00485216
     atom    4 type  2   force =     0.00000000    0.00000000    0.00485216

     Total force =     0.009704     Total SCF correction =     0.000049


     Computing stress (Cartesian axis) and pressure

          total   stress  (Ry/bohr**3)                   (kbar)     P=       54.10
   0.00032912   0.00000000  -0.00000000           48.42        0.00       -0.00
   0.00000000   0.00032912  -0.00000000            0.00       48.42       -0.00
   0.00000000   0.00000000   0.00044509            0.00        0.00       65.48


     Writing all to output data dir /home/nico-sachs/source/q-e/tempdir/gan.save/ :
     XML data file, charge density, pseudopotentials, collected wavefunctions

     init_run     :      1.32s CPU      1.41s WALL (       1 calls)
     electrons    :    137.46s CPU    141.82s WALL (       1 calls)
     forces       :      0.31s CPU      0.31s WALL (       1 calls)
     stress       :      1.17s CPU      1.17s WALL (       1 calls)

     Called by init_run:
     wfcinit      :      0.58s CPU      0.61s WALL (       1 calls)
     potinit      :      0.31s CPU      0.35s WALL (       1 calls)
     hinit0       :      0.32s CPU      0.33s WALL (       1 calls)

     Called by electrons:
     c_bands      :    118.07s CPU    122.13s WALL (      36 calls)
     sum_band     :      7.83s CPU      8.07s WALL (      36 calls)
     v_of_rho     :      0.46s CPU      0.48s WALL (      37 calls)
     newd         :      1.69s CPU      1.72s WALL (      37 calls)
     PAW_pot      :      9.46s CPU      9.54s WALL (      37 calls)
     mix_rho      :      0.13s CPU      0.13s WALL (      36 calls)

     Called by c_bands:
     init_us_2    :      0.79s CPU      0.81s WALL (    1575 calls)
     ccgdiagg     :    101.99s CPU    105.56s WALL (     756 calls)
     wfcrot       :     16.01s CPU     16.50s WALL (     756 calls)

     Called by *cgdiagg:
     h_psi        :     71.01s CPU     73.81s WALL (   62568 calls)
     s_psi        :     19.45s CPU     20.06s WALL (  124380 calls)

     Called by h_psi:
     h_psi:calbec :     15.87s CPU     16.49s WALL (   62568 calls)
     vloc_psi     :     43.33s CPU     45.11s WALL (   62568 calls)
                                        0.00s GPU  (   62568 calls)
     add_vuspsi   :     11.11s CPU     11.51s WALL (   62568 calls)
     hs_1psi      :     68.91s CPU     71.60s WALL (   61812 calls)
     s_1psi       :     22.19s CPU     22.78s WALL (   61812 calls)

     General routines
     calbec       :     31.40s CPU     32.43s WALL (  125493 calls)
     fft          :      0.37s CPU      0.38s WALL (     504 calls)
     ffts         :      0.10s CPU      0.10s WALL (      73 calls)
     fftw         :     40.84s CPU     42.58s WALL (  164784 calls)
     interpolate  :      0.11s CPU      0.11s WALL (      37 calls)

     Parallel routines

     PWSCF        :   2m20.45s CPU   2m24.96s WALL


   This run was terminated on:  14:19:23  27Jan2026            

=------------------------------------------------------------------------------=
   JOB DONE.
=------------------------------------------------------------------------------=
