
     Program PWSCF v.7.5 starts on 19Feb2026 at 17:49: 2 
        Git branch: develop
        Last git commit: 797f00f1d3f390f642411209b167af6668f3cb83
        Last git commit date: Mon Dec 8 18:25:28 2025 +0000
        Last git commit subject: Merge branch 'uniform_uv' into 'develop'

     This program is part of the open-source Quantum ESPRESSO suite
     for quantum simulation of materials; please cite
         "P. Giannozzi et al., J. Phys.:Condens. Matter 21 395502 (2009);
         "P. Giannozzi et al., J. Phys.:Condens. Matter 29 465901 (2017);
         "P. Giannozzi et al., J. Chem. Phys. 152 154105 (2020);
          URL http://www.quantum-espresso.org", 
     in publications or presentations arising from this work. More details at
     http://www.quantum-espresso.org/quote

     Parallel version (MPI), running on   256 processors

     MPI processes distributed on     1 nodes
     1538031 MiB available memory on the printing compute node when the environment starts

     Waiting for input...
     Reading input from standard input

     Current dimensions of program PWSCF are:
     Max number of different atomic species (ntypx) = 10
     Max number of k-points (npk) =  40000
     Max angular momentum in pseudopotentials (lmaxx) =  4

     K-points division:     npool     =      16
     R & G space division:  proc/nbgrp/npool/nimage =      16
     Subspace diagonalization in iterative solution of the eigenvalue problem:
     a serial algorithm will be used


     Parallelization info
     --------------------
     sticks:   dense  smooth     PW     G-vecs:    dense   smooth      PW
     Min         148      98     29                 4764     2571     420
     Max         151      99     31                 4765     2573     421
     Sum        2383    1573    475                76225    41151    6735

     Using Slab Decomposition



     bravais-lattice index     =            2
     lattice parameter (alat)  =      10.6990  a.u.
     unit-cell volume          =     306.1717 (a.u.)^3
     number of atoms/cell      =            2
     number of atomic types    =            2
     number of electrons       =        28.00
     number of Kohn-Sham states=           16
     kinetic-energy cutoff     =     100.0000  Ry
     charge density cutoff     =     600.0000  Ry
     scf convergence threshold =      1.0E-06
     mixing beta               =       0.7000
     number of iterations used =            8  plain     mixing
     Exchange-correlation= PBESOL
                           (   1   4  10   8   0   0   0)

     celldm(1)=  10.698963  celldm(2)=   0.000000  celldm(3)=   0.000000
     celldm(4)=   0.000000  celldm(5)=   0.000000  celldm(6)=   0.000000

     crystal axes: (cart. coord. in units of alat)
               a(1) = (  -0.500000   0.000000   0.500000 )  
               a(2) = (   0.000000   0.500000   0.500000 )  
               a(3) = (  -0.500000   0.500000   0.000000 )  

     reciprocal axes: (cart. coord. in units 2 pi/alat)
               b(1) = ( -1.000000 -1.000000  1.000000 )  
               b(2) = (  1.000000  1.000000  1.000000 )  
               b(3) = ( -1.000000  1.000000 -1.000000 )  


     PseudoPot. # 1 for Ga read from file:
     /home/sachs/software/q-e/Pseudofolder/nc-sr-04_pbesol_standard_upf/Ga.upf
     MD5 check sum: 3b2828b26f3ae6b9eab8bf4a0fe74f9e
     Pseudo is Norm-conserving + core correction, Zval = 13.0
     Generated using ONCVPSP code by D. R. Hamann
     Using radial grid of 1902 points,  6 beta functions with: 
                l(1) =   0
                l(2) =   0
                l(3) =   1
                l(4) =   1
                l(5) =   2
                l(6) =   2

     PseudoPot. # 2 for As read from file:
     /home/sachs/software/q-e/Pseudofolder/nc-sr-04_pbesol_standard_upf/As.upf
     MD5 check sum: 8e1cf9692a75f2b458f16819c50a4a5a
     Pseudo is Norm-conserving + core correction, Zval = 15.0
     Generated using ONCVPSP code by D. R. Hamann
     Using radial grid of 1342 points,  6 beta functions with: 
                l(1) =   0
                l(2) =   0
                l(3) =   1
                l(4) =   1
                l(5) =   2
                l(6) =   2

     atomic species   valence    mass     pseudopotential
     Ga               13.00    69.72300     Ga( 1.00)
     As               15.00    74.92100     As( 1.00)

     24 Sym. Ops. (no inversion) found


                                    s                        frac. trans.

      isym =  1     identity                                     

 cryst.   s( 1) = (     1          0          0      )
                  (     0          1          0      )
                  (     0          0          1      )

 cart.    s( 1) = (  1.0000000  0.0000000  0.0000000 )
                  (  0.0000000  1.0000000  0.0000000 )
                  (  0.0000000  0.0000000  1.0000000 )


      isym =  2     180 deg rotation - cart. axis [0,0,1]        

 cryst.   s( 2) = (     0          1         -1      )
                  (     1          0         -1      )
                  (     0          0         -1      )

 cart.    s( 2) = ( -1.0000000  0.0000000  0.0000000 )
                  (  0.0000000 -1.0000000  0.0000000 )
                  (  0.0000000  0.0000000  1.0000000 )


      isym =  3     180 deg rotation - cart. axis [0,1,0]        

 cryst.   s( 3) = (    -1          0          0      )
                  (    -1          0          1      )
                  (    -1          1          0      )

 cart.    s( 3) = ( -1.0000000  0.0000000  0.0000000 )
                  (  0.0000000  1.0000000  0.0000000 )
                  (  0.0000000  0.0000000 -1.0000000 )


      isym =  4     180 deg rotation - cart. axis [1,0,0]        

 cryst.   s( 4) = (     0         -1          1      )
                  (     0         -1          0      )
                  (     1         -1          0      )

 cart.    s( 4) = (  1.0000000  0.0000000  0.0000000 )
                  (  0.0000000 -1.0000000  0.0000000 )
                  (  0.0000000  0.0000000 -1.0000000 )


      isym =  5     120 deg rotation - cart. axis [-1,-1,-1]     

 cryst.   s( 5) = (    -1          0          1      )
                  (    -1          1          0      )
                  (    -1          0          0      )

 cart.    s( 5) = (  0.0000000  1.0000000  0.0000000 )
                  (  0.0000000  0.0000000  1.0000000 )
                  (  1.0000000  0.0000000  0.0000000 )


      isym =  6     120 deg rotation - cart. axis [-1,1,1]       

 cryst.   s( 6) = (     0          1          0      )
                  (     0          0          1      )
                  (     1          0          0      )

 cart.    s( 6) = (  0.0000000 -1.0000000  0.0000000 )
                  (  0.0000000  0.0000000  1.0000000 )
                  ( -1.0000000  0.0000000  0.0000000 )


      isym =  7     120 deg rotation - cart. axis [1,1,-1]       

 cryst.   s( 7) = (     1          0         -1      )
                  (     0          0         -1      )
                  (     0          1         -1      )

 cart.    s( 7) = (  0.0000000  1.0000000  0.0000000 )
                  (  0.0000000  0.0000000 -1.0000000 )
                  ( -1.0000000  0.0000000  0.0000000 )


      isym =  8     120 deg rotation - cart. axis [1,-1,1]       

 cryst.   s( 8) = (     0         -1          0      )
                  (     1         -1          0      )
                  (     0         -1          1      )

 cart.    s( 8) = (  0.0000000 -1.0000000  0.0000000 )
                  (  0.0000000  0.0000000 -1.0000000 )
                  (  1.0000000  0.0000000  0.0000000 )


      isym =  9     120 deg rotation - cart. axis [1,1,1]        

 cryst.   s( 9) = (     0          0         -1      )
                  (     0          1         -1      )
                  (     1          0         -1      )

 cart.    s( 9) = (  0.0000000  0.0000000  1.0000000 )
                  (  1.0000000  0.0000000  0.0000000 )
                  (  0.0000000  1.0000000  0.0000000 )


      isym = 10     120 deg rotation - cart. axis [-1,1,-1]      

 cryst.   s(10) = (    -1          1          0      )
                  (    -1          0          0      )
                  (    -1          0          1      )

 cart.    s(10) = (  0.0000000  0.0000000  1.0000000 )
                  ( -1.0000000  0.0000000  0.0000000 )
                  (  0.0000000 -1.0000000  0.0000000 )


      isym = 11     120 deg rotation - cart. axis [1,-1,-1]      

 cryst.   s(11) = (     0          0          1      )
                  (     1          0          0      )
                  (     0          1          0      )

 cart.    s(11) = (  0.0000000  0.0000000 -1.0000000 )
                  ( -1.0000000  0.0000000  0.0000000 )
                  (  0.0000000  1.0000000  0.0000000 )


      isym = 12     120 deg rotation - cart. axis [-1,-1,1]      

 cryst.   s(12) = (     1         -1          0      )
                  (     0         -1          1      )
                  (     0         -1          0      )

 cart.    s(12) = (  0.0000000  0.0000000 -1.0000000 )
                  (  1.0000000  0.0000000  0.0000000 )
                  (  0.0000000 -1.0000000  0.0000000 )


      isym = 13     inv. 180 deg rotation - cart. axis [1,1,0]   

 cryst.   s(13) = (     0          1          0      )
                  (     1          0          0      )
                  (     0          0          1      )

 cart.    s(13) = (  0.0000000 -1.0000000  0.0000000 )
                  ( -1.0000000  0.0000000  0.0000000 )
                  (  0.0000000  0.0000000  1.0000000 )


      isym = 14     inv. 180 deg rotation - cart. axis [1,-1,0]  

 cryst.   s(14) = (     1          0         -1      )
                  (     0          1         -1      )
                  (     0          0         -1      )

 cart.    s(14) = (  0.0000000  1.0000000  0.0000000 )
                  (  1.0000000  0.0000000  0.0000000 )
                  (  0.0000000  0.0000000  1.0000000 )


      isym = 15     inv.  90 deg rotation - cart. axis [0,0,-1]  

 cryst.   s(15) = (     0         -1          0      )
                  (     0         -1          1      )
                  (     1         -1          0      )

 cart.    s(15) = (  0.0000000 -1.0000000  0.0000000 )
                  (  1.0000000  0.0000000  0.0000000 )
                  (  0.0000000  0.0000000 -1.0000000 )


      isym = 16     inv.  90 deg rotation - cart. axis [0,0,1]   

 cryst.   s(16) = (    -1          0          1      )
                  (    -1          0          0      )
                  (    -1          1          0      )

 cart.    s(16) = (  0.0000000  1.0000000  0.0000000 )
                  ( -1.0000000  0.0000000  0.0000000 )
                  (  0.0000000  0.0000000 -1.0000000 )


      isym = 17     inv. 180 deg rotation - cart. axis [1,0,1]   

 cryst.   s(17) = (     1          0          0      )
                  (     0          0          1      )
                  (     0          1          0      )

 cart.    s(17) = (  0.0000000  0.0000000 -1.0000000 )
                  (  0.0000000  1.0000000  0.0000000 )
                  ( -1.0000000  0.0000000  0.0000000 )


      isym = 18     inv. 180 deg rotation - cart. axis [-1,0,1]  

 cryst.   s(18) = (    -1          0          0      )
                  (    -1          1          0      )
                  (    -1          0          1      )

 cart.    s(18) = (  0.0000000  0.0000000  1.0000000 )
                  (  0.0000000  1.0000000  0.0000000 )
                  (  1.0000000  0.0000000  0.0000000 )


      isym = 19     inv.  90 deg rotation - cart. axis [0,1,0]   

 cryst.   s(19) = (     0         -1          1      )
                  (     1         -1          0      )
                  (     0         -1          0      )

 cart.    s(19) = (  0.0000000  0.0000000 -1.0000000 )
                  (  0.0000000 -1.0000000  0.0000000 )
                  (  1.0000000  0.0000000  0.0000000 )


      isym = 20     inv.  90 deg rotation - cart. axis [0,-1,0]  

 cryst.   s(20) = (     0          1         -1      )
                  (     0          0         -1      )
                  (     1          0         -1      )

 cart.    s(20) = (  0.0000000  0.0000000  1.0000000 )
                  (  0.0000000 -1.0000000  0.0000000 )
                  ( -1.0000000  0.0000000  0.0000000 )


      isym = 21     inv. 180 deg rotation - cart. axis [0,1,1]   

 cryst.   s(21) = (     1         -1          0      )
                  (     0         -1          0      )
                  (     0         -1          1      )

 cart.    s(21) = (  1.0000000  0.0000000  0.0000000 )
                  (  0.0000000  0.0000000 -1.0000000 )
                  (  0.0000000 -1.0000000  0.0000000 )


      isym = 22     inv. 180 deg rotation - cart. axis [0,1,-1]  

 cryst.   s(22) = (     0          0          1      )
                  (     0          1          0      )
                  (     1          0          0      )

 cart.    s(22) = (  1.0000000  0.0000000  0.0000000 )
                  (  0.0000000  0.0000000  1.0000000 )
                  (  0.0000000  1.0000000  0.0000000 )


      isym = 23     inv.  90 deg rotation - cart. axis [-1,0,0]  

 cryst.   s(23) = (     0          0         -1      )
                  (     1          0         -1      )
                  (     0          1         -1      )

 cart.    s(23) = ( -1.0000000  0.0000000  0.0000000 )
                  (  0.0000000  0.0000000 -1.0000000 )
                  (  0.0000000  1.0000000  0.0000000 )


      isym = 24     inv.  90 deg rotation - cart. axis [1,0,0]   

 cryst.   s(24) = (    -1          1          0      )
                  (    -1          0          1      )
                  (    -1          0          0      )

 cart.    s(24) = ( -1.0000000  0.0000000  0.0000000 )
                  (  0.0000000  0.0000000  1.0000000 )
                  (  0.0000000 -1.0000000  0.0000000 )


     point group T_d (-43m) 
     there are  5 classes
     the character table:

       E     8C3   3C2   6S4   6s_d 
A_1    1.00  1.00  1.00  1.00  1.00
A_2    1.00  1.00  1.00 -1.00 -1.00
E      2.00 -1.00  2.00  0.00  0.00
T_1    3.00  0.00 -1.00  1.00 -1.00
T_2    3.00  0.00 -1.00 -1.00  1.00

     the symmetry operations in each class and the name of the first element:

     E        1
          identity                                               
     8C3      5    7    8    6   12    9   10   11
          120 deg rotation - cart. axis [-1,-1,-1]               
     3C2      2    3    4
          180 deg rotation - cart. axis [0,0,1]                  
     6S4     15   16   20   19   23   24
          inv.  90 deg rotation - cart. axis [0,0,-1]            
     6s_d    13   14   17   18   21   22
          inv. 180 deg rotation - cart. axis [1,1,0]             

   Cartesian axes

     site n.     atom                  positions (alat units)
         1        Ga     tau(   1) = (   0.0000000   0.0000000   0.0000000  )
         2        As     tau(   2) = (  -0.2500000   0.2500000   0.2500000  )

   Crystallographic axes

     site n.     atom                  positions (cryst. coord.)
         1        Ga     tau(   1) = (  0.0000000  0.0000000  0.0000000  )
         2        As     tau(   2) = (  0.2500000  0.2500000  0.2500000  )

     number of k points=   770
                       cart. coord. in units 2pi/alat
        k(    1) = (  -0.0250000   0.0250000   0.0250000), wk =   0.0005000
        k(    2) = (  -0.0750000   0.0750000  -0.0250000), wk =   0.0015000
        k(    3) = (  -0.1250000   0.1250000  -0.0750000), wk =   0.0015000
        k(    4) = (  -0.1750000   0.1750000  -0.1250000), wk =   0.0015000
        k(    5) = (  -0.2250000   0.2250000  -0.1750000), wk =   0.0015000
        k(    6) = (  -0.2750000   0.2750000  -0.2250000), wk =   0.0015000
        k(    7) = (  -0.3250000   0.3250000  -0.2750000), wk =   0.0015000
        k(    8) = (  -0.3750000   0.3750000  -0.3250000), wk =   0.0015000
        k(    9) = (  -0.4250000   0.4250000  -0.3750000), wk =   0.0015000
        k(   10) = (  -0.4750000   0.4750000  -0.4250000), wk =   0.0015000
        k(   11) = (   0.4750000  -0.4750000   0.5250000), wk =   0.0015000
        k(   12) = (   0.4250000  -0.4250000   0.4750000), wk =   0.0015000
        k(   13) = (   0.3750000  -0.3750000   0.4250000), wk =   0.0015000
        k(   14) = (   0.3250000  -0.3250000   0.3750000), wk =   0.0015000
        k(   15) = (   0.2750000  -0.2750000   0.3250000), wk =   0.0015000
        k(   16) = (   0.2250000  -0.2250000   0.2750000), wk =   0.0015000
        k(   17) = (   0.1750000  -0.1750000   0.2250000), wk =   0.0015000
        k(   18) = (   0.1250000  -0.1250000   0.1750000), wk =   0.0015000
        k(   19) = (   0.0750000  -0.0750000   0.1250000), wk =   0.0015000
        k(   20) = (   0.0250000  -0.0250000   0.0750000), wk =   0.0015000
        k(   21) = (  -0.0250000   0.1250000   0.0250000), wk =   0.0015000
        k(   22) = (  -0.0750000   0.1750000  -0.0250000), wk =   0.0030000
        k(   23) = (  -0.1250000   0.2250000  -0.0750000), wk =   0.0030000
        k(   24) = (  -0.1750000   0.2750000  -0.1250000), wk =   0.0030000
        k(   25) = (  -0.2250000   0.3250000  -0.1750000), wk =   0.0030000
        k(   26) = (  -0.2750000   0.3750000  -0.2250000), wk =   0.0030000
        k(   27) = (  -0.3250000   0.4250000  -0.2750000), wk =   0.0030000
        k(   28) = (  -0.3750000   0.4750000  -0.3250000), wk =   0.0030000
        k(   29) = (  -0.4250000   0.5250000  -0.3750000), wk =   0.0030000
        k(   30) = (   0.5250000  -0.4250000   0.5750000), wk =   0.0030000
        k(   31) = (   0.4750000  -0.3750000   0.5250000), wk =   0.0030000
        k(   32) = (   0.4250000  -0.3250000   0.4750000), wk =   0.0030000
        k(   33) = (   0.3750000  -0.2750000   0.4250000), wk =   0.0030000
        k(   34) = (   0.3250000  -0.2250000   0.3750000), wk =   0.0030000
        k(   35) = (   0.2750000  -0.1750000   0.3250000), wk =   0.0030000
        k(   36) = (   0.2250000  -0.1250000   0.2750000), wk =   0.0030000
        k(   37) = (   0.1750000  -0.0750000   0.2250000), wk =   0.0030000
        k(   38) = (   0.1250000  -0.0250000   0.1750000), wk =   0.0030000
        k(   39) = (   0.0750000   0.0250000   0.1250000), wk =   0.0030000
        k(   40) = (  -0.0250000   0.2250000   0.0250000), wk =   0.0015000
        k(   41) = (  -0.0750000   0.2750000  -0.0250000), wk =   0.0030000
        k(   42) = (  -0.1250000   0.3250000  -0.0750000), wk =   0.0030000
        k(   43) = (  -0.1750000   0.3750000  -0.1250000), wk =   0.0030000
        k(   44) = (  -0.2250000   0.4250000  -0.1750000), wk =   0.0030000
        k(   45) = (  -0.2750000   0.4750000  -0.2250000), wk =   0.0030000
        k(   46) = (  -0.3250000   0.5250000  -0.2750000), wk =   0.0030000
        k(   47) = (  -0.3750000   0.5750000  -0.3250000), wk =   0.0030000
        k(   48) = (   0.5750000  -0.3750000   0.6250000), wk =   0.0030000
        k(   49) = (   0.5250000  -0.3250000   0.5750000), wk =   0.0030000
        k(   50) = (   0.4750000  -0.2750000   0.5250000), wk =   0.0030000
        k(   51) = (   0.4250000  -0.2250000   0.4750000), wk =   0.0030000
        k(   52) = (   0.3750000  -0.1750000   0.4250000), wk =   0.0030000
        k(   53) = (   0.3250000  -0.1250000   0.3750000), wk =   0.0030000
        k(   54) = (   0.2750000  -0.0750000   0.3250000), wk =   0.0030000
        k(   55) = (   0.2250000  -0.0250000   0.2750000), wk =   0.0030000
        k(   56) = (   0.1750000   0.0250000   0.2250000), wk =   0.0030000
        k(   57) = (   0.1250000   0.0750000   0.1750000), wk =   0.0030000
        k(   58) = (  -0.0250000   0.3250000   0.0250000), wk =   0.0015000
        k(   59) = (  -0.0750000   0.3750000  -0.0250000), wk =   0.0030000
        k(   60) = (  -0.1250000   0.4250000  -0.0750000), wk =   0.0030000
        k(   61) = (  -0.1750000   0.4750000  -0.1250000), wk =   0.0030000
        k(   62) = (  -0.2250000   0.5250000  -0.1750000), wk =   0.0030000
        k(   63) = (  -0.2750000   0.5750000  -0.2250000), wk =   0.0030000
        k(   64) = (  -0.3250000   0.6250000  -0.2750000), wk =   0.0030000
        k(   65) = (   0.6250000  -0.3250000   0.6750000), wk =   0.0030000
        k(   66) = (   0.5750000  -0.2750000   0.6250000), wk =   0.0030000
        k(   67) = (   0.5250000  -0.2250000   0.5750000), wk =   0.0030000
        k(   68) = (   0.4750000  -0.1750000   0.5250000), wk =   0.0030000
        k(   69) = (   0.4250000  -0.1250000   0.4750000), wk =   0.0030000
        k(   70) = (   0.3750000  -0.0750000   0.4250000), wk =   0.0030000
        k(   71) = (   0.3250000  -0.0250000   0.3750000), wk =   0.0030000
        k(   72) = (   0.2750000   0.0250000   0.3250000), wk =   0.0030000
        k(   73) = (   0.2250000   0.0750000   0.2750000), wk =   0.0030000
        k(   74) = (   0.1750000   0.1250000   0.2250000), wk =   0.0030000
        k(   75) = (  -0.0250000   0.4250000   0.0250000), wk =   0.0015000
        k(   76) = (  -0.0750000   0.4750000  -0.0250000), wk =   0.0030000
        k(   77) = (  -0.1250000   0.5250000  -0.0750000), wk =   0.0030000
        k(   78) = (  -0.1750000   0.5750000  -0.1250000), wk =   0.0030000
        k(   79) = (  -0.2250000   0.6250000  -0.1750000), wk =   0.0030000
        k(   80) = (  -0.2750000   0.6750000  -0.2250000), wk =   0.0030000
        k(   81) = (   0.6750000  -0.2750000   0.7250000), wk =   0.0030000
        k(   82) = (   0.6250000  -0.2250000   0.6750000), wk =   0.0030000
        k(   83) = (   0.5750000  -0.1750000   0.6250000), wk =   0.0030000
        k(   84) = (   0.5250000  -0.1250000   0.5750000), wk =   0.0030000
        k(   85) = (   0.4750000  -0.0750000   0.5250000), wk =   0.0030000
        k(   86) = (   0.4250000  -0.0250000   0.4750000), wk =   0.0030000
        k(   87) = (   0.3750000   0.0250000   0.4250000), wk =   0.0030000
        k(   88) = (   0.3250000   0.0750000   0.3750000), wk =   0.0030000
        k(   89) = (   0.2750000   0.1250000   0.3250000), wk =   0.0030000
        k(   90) = (   0.2250000   0.1750000   0.2750000), wk =   0.0030000
        k(   91) = (  -0.0250000   0.5250000   0.0250000), wk =   0.0015000
        k(   92) = (  -0.0750000   0.5750000  -0.0250000), wk =   0.0030000
        k(   93) = (  -0.1250000   0.6250000  -0.0750000), wk =   0.0030000
        k(   94) = (  -0.1750000   0.6750000  -0.1250000), wk =   0.0030000
        k(   95) = (  -0.2250000   0.7250000  -0.1750000), wk =   0.0030000
        k(   96) = (   0.7250000  -0.2250000   0.7750000), wk =   0.0030000
        k(   97) = (   0.6750000  -0.1750000   0.7250000), wk =   0.0030000
        k(   98) = (   0.6250000  -0.1250000   0.6750000), wk =   0.0030000
        k(   99) = (   0.5750000  -0.0750000   0.6250000), wk =   0.0030000
        k(  100) = (   0.5250000  -0.0250000   0.5750000), wk =   0.0030000
        k(  101) = (   0.4750000   0.0250000   0.5250000), wk =   0.0030000
        k(  102) = (   0.4250000   0.0750000   0.4750000), wk =   0.0030000
        k(  103) = (   0.3750000   0.1250000   0.4250000), wk =   0.0030000
        k(  104) = (   0.3250000   0.1750000   0.3750000), wk =   0.0030000
        k(  105) = (   0.2750000   0.2250000   0.3250000), wk =   0.0030000
        k(  106) = (  -0.0250000   0.6250000   0.0250000), wk =   0.0015000
        k(  107) = (  -0.0750000   0.6750000  -0.0250000), wk =   0.0030000
        k(  108) = (  -0.1250000   0.7250000  -0.0750000), wk =   0.0030000
        k(  109) = (  -0.1750000   0.7750000  -0.1250000), wk =   0.0030000
        k(  110) = (   0.7750000  -0.1750000   0.8250000), wk =   0.0030000
        k(  111) = (   0.7250000  -0.1250000   0.7750000), wk =   0.0030000
        k(  112) = (   0.6750000  -0.0750000   0.7250000), wk =   0.0030000
        k(  113) = (   0.6250000  -0.0250000   0.6750000), wk =   0.0030000
        k(  114) = (   0.5750000   0.0250000   0.6250000), wk =   0.0030000
        k(  115) = (   0.5250000   0.0750000   0.5750000), wk =   0.0030000
        k(  116) = (   0.4750000   0.1250000   0.5250000), wk =   0.0030000
        k(  117) = (   0.4250000   0.1750000   0.4750000), wk =   0.0030000
        k(  118) = (   0.3750000   0.2250000   0.4250000), wk =   0.0030000
        k(  119) = (   0.3250000   0.2750000   0.3750000), wk =   0.0030000
        k(  120) = (  -0.0250000   0.7250000   0.0250000), wk =   0.0015000
        k(  121) = (  -0.0750000   0.7750000  -0.0250000), wk =   0.0030000
        k(  122) = (  -0.1250000   0.8250000  -0.0750000), wk =   0.0030000
        k(  123) = (   0.8250000  -0.1250000   0.8750000), wk =   0.0030000
        k(  124) = (   0.7750000  -0.0750000   0.8250000), wk =   0.0030000
        k(  125) = (   0.7250000  -0.0250000   0.7750000), wk =   0.0030000
        k(  126) = (   0.6750000   0.0250000   0.7250000), wk =   0.0030000
        k(  127) = (   0.6250000   0.0750000   0.6750000), wk =   0.0030000
        k(  128) = (   0.5750000   0.1250000   0.6250000), wk =   0.0030000
        k(  129) = (   0.5250000   0.1750000   0.5750000), wk =   0.0030000
        k(  130) = (   0.4750000   0.2250000   0.5250000), wk =   0.0030000
        k(  131) = (   0.4250000   0.2750000   0.4750000), wk =   0.0030000
        k(  132) = (   0.3750000   0.3250000   0.4250000), wk =   0.0030000
        k(  133) = (  -0.0250000   0.8250000   0.0250000), wk =   0.0015000
        k(  134) = (  -0.0750000   0.8750000  -0.0250000), wk =   0.0030000
        k(  135) = (   0.8750000  -0.0750000   0.9250000), wk =   0.0030000
        k(  136) = (   0.8250000  -0.0250000   0.8750000), wk =   0.0030000
        k(  137) = (   0.7750000   0.0250000   0.8250000), wk =   0.0030000
        k(  138) = (   0.7250000   0.0750000   0.7750000), wk =   0.0030000
        k(  139) = (   0.6750000   0.1250000   0.7250000), wk =   0.0030000
        k(  140) = (   0.6250000   0.1750000   0.6750000), wk =   0.0030000
        k(  141) = (   0.5750000   0.2250000   0.6250000), wk =   0.0030000
        k(  142) = (   0.5250000   0.2750000   0.5750000), wk =   0.0030000
        k(  143) = (   0.4750000   0.3250000   0.5250000), wk =   0.0030000
        k(  144) = (   0.4250000   0.3750000   0.4750000), wk =   0.0030000
        k(  145) = (  -0.0250000   0.9250000   0.0250000), wk =   0.0015000
        k(  146) = (   0.9250000  -0.0250000   0.9750000), wk =   0.0030000
        k(  147) = (   0.8750000   0.0250000   0.9250000), wk =   0.0030000
        k(  148) = (   0.8250000   0.0750000   0.8750000), wk =   0.0030000
        k(  149) = (   0.7750000   0.1250000   0.8250000), wk =   0.0030000
        k(  150) = (   0.7250000   0.1750000   0.7750000), wk =   0.0030000
        k(  151) = (   0.6750000   0.2250000   0.7250000), wk =   0.0030000
        k(  152) = (   0.6250000   0.2750000   0.6750000), wk =   0.0030000
        k(  153) = (   0.5750000   0.3250000   0.6250000), wk =   0.0030000
        k(  154) = (   0.5250000   0.3750000   0.5750000), wk =   0.0030000
        k(  155) = (   0.4750000   0.4250000   0.5250000), wk =   0.0030000
        k(  156) = (  -0.0250000  -0.9750000   0.0250000), wk =   0.0015000
        k(  157) = (  -0.0750000  -0.9250000  -0.0250000), wk =   0.0030000
        k(  158) = (  -0.1250000  -0.8750000  -0.0750000), wk =   0.0030000
        k(  159) = (  -0.1750000  -0.8250000  -0.1250000), wk =   0.0030000
        k(  160) = (  -0.2250000  -0.7750000  -0.1750000), wk =   0.0030000
        k(  161) = (  -0.2750000  -0.7250000  -0.2250000), wk =   0.0030000
        k(  162) = (  -0.3250000  -0.6750000  -0.2750000), wk =   0.0030000
        k(  163) = (  -0.3750000  -0.6250000  -0.3250000), wk =   0.0030000
        k(  164) = (  -0.4250000  -0.5750000  -0.3750000), wk =   0.0030000
        k(  165) = (  -0.0250000  -0.8750000   0.0250000), wk =   0.0015000
        k(  166) = (  -0.0750000  -0.8250000  -0.0250000), wk =   0.0030000
        k(  167) = (  -0.1250000  -0.7750000  -0.0750000), wk =   0.0030000
        k(  168) = (  -0.1750000  -0.7250000  -0.1250000), wk =   0.0030000
        k(  169) = (  -0.2250000  -0.6750000  -0.1750000), wk =   0.0030000
        k(  170) = (  -0.2750000  -0.6250000  -0.2250000), wk =   0.0030000
        k(  171) = (  -0.3250000  -0.5750000  -0.2750000), wk =   0.0030000
        k(  172) = (  -0.3750000  -0.5250000  -0.3250000), wk =   0.0030000
        k(  173) = (  -0.0250000  -0.7750000   0.0250000), wk =   0.0015000
        k(  174) = (  -0.0750000  -0.7250000  -0.0250000), wk =   0.0030000
        k(  175) = (  -0.1250000  -0.6750000  -0.0750000), wk =   0.0030000
        k(  176) = (  -0.1750000  -0.6250000  -0.1250000), wk =   0.0030000
        k(  177) = (  -0.2250000  -0.5750000  -0.1750000), wk =   0.0030000
        k(  178) = (  -0.2750000  -0.5250000  -0.2250000), wk =   0.0030000
        k(  179) = (  -0.3250000  -0.4750000  -0.2750000), wk =   0.0030000
        k(  180) = (  -0.0250000  -0.6750000   0.0250000), wk =   0.0015000
        k(  181) = (  -0.0750000  -0.6250000  -0.0250000), wk =   0.0030000
        k(  182) = (  -0.1250000  -0.5750000  -0.0750000), wk =   0.0030000
        k(  183) = (  -0.1750000  -0.5250000  -0.1250000), wk =   0.0030000
        k(  184) = (  -0.2250000  -0.4750000  -0.1750000), wk =   0.0030000
        k(  185) = (  -0.2750000  -0.4250000  -0.2250000), wk =   0.0030000
        k(  186) = (  -0.0250000  -0.5750000   0.0250000), wk =   0.0015000
        k(  187) = (  -0.0750000  -0.5250000  -0.0250000), wk =   0.0030000
        k(  188) = (  -0.1250000  -0.4750000  -0.0750000), wk =   0.0030000
        k(  189) = (  -0.1750000  -0.4250000  -0.1250000), wk =   0.0030000
        k(  190) = (  -0.2250000  -0.3750000  -0.1750000), wk =   0.0030000
        k(  191) = (  -0.0250000  -0.4750000   0.0250000), wk =   0.0015000
        k(  192) = (  -0.0750000  -0.4250000  -0.0250000), wk =   0.0030000
        k(  193) = (  -0.1250000  -0.3750000  -0.0750000), wk =   0.0030000
        k(  194) = (  -0.1750000  -0.3250000  -0.1250000), wk =   0.0030000
        k(  195) = (  -0.0250000  -0.3750000   0.0250000), wk =   0.0015000
        k(  196) = (  -0.0750000  -0.3250000  -0.0250000), wk =   0.0030000
        k(  197) = (  -0.1250000  -0.2750000  -0.0750000), wk =   0.0030000
        k(  198) = (  -0.0250000  -0.2750000   0.0250000), wk =   0.0015000
        k(  199) = (  -0.0750000  -0.2250000  -0.0250000), wk =   0.0030000
        k(  200) = (  -0.0250000  -0.1750000   0.0250000), wk =   0.0015000
        k(  201) = (  -0.0750000   0.0750000   0.0750000), wk =   0.0005000
        k(  202) = (  -0.1250000   0.1250000   0.0250000), wk =   0.0015000
        k(  203) = (  -0.1750000   0.1750000  -0.0250000), wk =   0.0015000
        k(  204) = (  -0.2250000   0.2250000  -0.0750000), wk =   0.0015000
        k(  205) = (  -0.2750000   0.2750000  -0.1250000), wk =   0.0015000
        k(  206) = (  -0.3250000   0.3250000  -0.1750000), wk =   0.0015000
        k(  207) = (  -0.3750000   0.3750000  -0.2250000), wk =   0.0015000
        k(  208) = (  -0.4250000   0.4250000  -0.2750000), wk =   0.0015000
        k(  209) = (  -0.4750000   0.4750000  -0.3250000), wk =   0.0015000
        k(  210) = (   0.4750000  -0.4750000   0.6250000), wk =   0.0015000
        k(  211) = (   0.4250000  -0.4250000   0.5750000), wk =   0.0015000
        k(  212) = (   0.3750000  -0.3750000   0.5250000), wk =   0.0015000
        k(  213) = (   0.3250000  -0.3250000   0.4750000), wk =   0.0015000
        k(  214) = (   0.2750000  -0.2750000   0.4250000), wk =   0.0015000
        k(  215) = (   0.2250000  -0.2250000   0.3750000), wk =   0.0015000
        k(  216) = (   0.1750000  -0.1750000   0.3250000), wk =   0.0015000
        k(  217) = (   0.1250000  -0.1250000   0.2750000), wk =   0.0015000
        k(  218) = (   0.0750000  -0.0750000   0.2250000), wk =   0.0015000
        k(  219) = (  -0.0750000   0.1750000   0.0750000), wk =   0.0015000
        k(  220) = (  -0.1250000   0.2250000   0.0250000), wk =   0.0030000
        k(  221) = (  -0.1750000   0.2750000  -0.0250000), wk =   0.0030000
        k(  222) = (  -0.2250000   0.3250000  -0.0750000), wk =   0.0030000
        k(  223) = (  -0.2750000   0.3750000  -0.1250000), wk =   0.0030000
        k(  224) = (  -0.3250000   0.4250000  -0.1750000), wk =   0.0030000
        k(  225) = (  -0.3750000   0.4750000  -0.2250000), wk =   0.0030000
        k(  226) = (  -0.4250000   0.5250000  -0.2750000), wk =   0.0030000
        k(  227) = (   0.5250000  -0.4250000   0.6750000), wk =   0.0030000
        k(  228) = (   0.4750000  -0.3750000   0.6250000), wk =   0.0030000
        k(  229) = (   0.4250000  -0.3250000   0.5750000), wk =   0.0030000
        k(  230) = (   0.3750000  -0.2750000   0.5250000), wk =   0.0030000
        k(  231) = (   0.3250000  -0.2250000   0.4750000), wk =   0.0030000
        k(  232) = (   0.2750000  -0.1750000   0.4250000), wk =   0.0030000
        k(  233) = (   0.2250000  -0.1250000   0.3750000), wk =   0.0030000
        k(  234) = (   0.1750000  -0.0750000   0.3250000), wk =   0.0030000
        k(  235) = (   0.1250000  -0.0250000   0.2750000), wk =   0.0030000
        k(  236) = (  -0.0750000   0.2750000   0.0750000), wk =   0.0015000
        k(  237) = (  -0.1250000   0.3250000   0.0250000), wk =   0.0030000
        k(  238) = (  -0.1750000   0.3750000  -0.0250000), wk =   0.0030000
        k(  239) = (  -0.2250000   0.4250000  -0.0750000), wk =   0.0030000
        k(  240) = (  -0.2750000   0.4750000  -0.1250000), wk =   0.0030000
        k(  241) = (  -0.3250000   0.5250000  -0.1750000), wk =   0.0030000
        k(  242) = (  -0.3750000   0.5750000  -0.2250000), wk =   0.0030000
        k(  243) = (   0.5750000  -0.3750000   0.7250000), wk =   0.0030000
        k(  244) = (   0.5250000  -0.3250000   0.6750000), wk =   0.0030000
        k(  245) = (   0.4750000  -0.2750000   0.6250000), wk =   0.0030000
        k(  246) = (   0.4250000  -0.2250000   0.5750000), wk =   0.0030000
        k(  247) = (   0.3750000  -0.1750000   0.5250000), wk =   0.0030000
        k(  248) = (   0.3250000  -0.1250000   0.4750000), wk =   0.0030000
        k(  249) = (   0.2750000  -0.0750000   0.4250000), wk =   0.0030000
        k(  250) = (   0.2250000  -0.0250000   0.3750000), wk =   0.0030000
        k(  251) = (   0.1750000   0.0250000   0.3250000), wk =   0.0030000
        k(  252) = (  -0.0750000   0.3750000   0.0750000), wk =   0.0015000
        k(  253) = (  -0.1250000   0.4250000   0.0250000), wk =   0.0030000
        k(  254) = (  -0.1750000   0.4750000  -0.0250000), wk =   0.0030000
        k(  255) = (  -0.2250000   0.5250000  -0.0750000), wk =   0.0030000
        k(  256) = (  -0.2750000   0.5750000  -0.1250000), wk =   0.0030000
        k(  257) = (  -0.3250000   0.6250000  -0.1750000), wk =   0.0030000
        k(  258) = (   0.6250000  -0.3250000   0.7750000), wk =   0.0030000
        k(  259) = (   0.5750000  -0.2750000   0.7250000), wk =   0.0030000
        k(  260) = (   0.5250000  -0.2250000   0.6750000), wk =   0.0030000
        k(  261) = (   0.4750000  -0.1750000   0.6250000), wk =   0.0030000
        k(  262) = (   0.4250000  -0.1250000   0.5750000), wk =   0.0030000
        k(  263) = (   0.3750000  -0.0750000   0.5250000), wk =   0.0030000
        k(  264) = (   0.3250000  -0.0250000   0.4750000), wk =   0.0030000
        k(  265) = (   0.2750000   0.0250000   0.4250000), wk =   0.0030000
        k(  266) = (   0.2250000   0.0750000   0.3750000), wk =   0.0030000
        k(  267) = (  -0.0750000   0.4750000   0.0750000), wk =   0.0015000
        k(  268) = (  -0.1250000   0.5250000   0.0250000), wk =   0.0030000
        k(  269) = (  -0.1750000   0.5750000  -0.0250000), wk =   0.0030000
        k(  270) = (  -0.2250000   0.6250000  -0.0750000), wk =   0.0030000
        k(  271) = (  -0.2750000   0.6750000  -0.1250000), wk =   0.0030000
        k(  272) = (   0.6750000  -0.2750000   0.8250000), wk =   0.0030000
        k(  273) = (   0.6250000  -0.2250000   0.7750000), wk =   0.0030000
        k(  274) = (   0.5750000  -0.1750000   0.7250000), wk =   0.0030000
        k(  275) = (   0.5250000  -0.1250000   0.6750000), wk =   0.0030000
        k(  276) = (   0.4750000  -0.0750000   0.6250000), wk =   0.0030000
        k(  277) = (   0.4250000  -0.0250000   0.5750000), wk =   0.0030000
        k(  278) = (   0.3750000   0.0250000   0.5250000), wk =   0.0030000
        k(  279) = (   0.3250000   0.0750000   0.4750000), wk =   0.0030000
        k(  280) = (   0.2750000   0.1250000   0.4250000), wk =   0.0030000
        k(  281) = (  -0.0750000   0.5750000   0.0750000), wk =   0.0015000
        k(  282) = (  -0.1250000   0.6250000   0.0250000), wk =   0.0030000
        k(  283) = (  -0.1750000   0.6750000  -0.0250000), wk =   0.0030000
        k(  284) = (  -0.2250000   0.7250000  -0.0750000), wk =   0.0030000
        k(  285) = (   0.7250000  -0.2250000   0.8750000), wk =   0.0030000
        k(  286) = (   0.6750000  -0.1750000   0.8250000), wk =   0.0030000
        k(  287) = (   0.6250000  -0.1250000   0.7750000), wk =   0.0030000
        k(  288) = (   0.5750000  -0.0750000   0.7250000), wk =   0.0030000
        k(  289) = (   0.5250000  -0.0250000   0.6750000), wk =   0.0030000
        k(  290) = (   0.4750000   0.0250000   0.6250000), wk =   0.0030000
        k(  291) = (   0.4250000   0.0750000   0.5750000), wk =   0.0030000
        k(  292) = (   0.3750000   0.1250000   0.5250000), wk =   0.0030000
        k(  293) = (   0.3250000   0.1750000   0.4750000), wk =   0.0030000
        k(  294) = (  -0.0750000   0.6750000   0.0750000), wk =   0.0015000
        k(  295) = (  -0.1250000   0.7250000   0.0250000), wk =   0.0030000
        k(  296) = (  -0.1750000   0.7750000  -0.0250000), wk =   0.0030000
        k(  297) = (   0.7750000  -0.1750000   0.9250000), wk =   0.0030000
        k(  298) = (   0.7250000  -0.1250000   0.8750000), wk =   0.0030000
        k(  299) = (   0.6750000  -0.0750000   0.8250000), wk =   0.0030000
        k(  300) = (   0.6250000  -0.0250000   0.7750000), wk =   0.0030000
        k(  301) = (   0.5750000   0.0250000   0.7250000), wk =   0.0030000
        k(  302) = (   0.5250000   0.0750000   0.6750000), wk =   0.0030000
        k(  303) = (   0.4750000   0.1250000   0.6250000), wk =   0.0030000
        k(  304) = (   0.4250000   0.1750000   0.5750000), wk =   0.0030000
        k(  305) = (   0.3750000   0.2250000   0.5250000), wk =   0.0030000
        k(  306) = (  -0.0750000   0.7750000   0.0750000), wk =   0.0015000
        k(  307) = (  -0.1250000   0.8250000   0.0250000), wk =   0.0030000
        k(  308) = (   0.8250000  -0.1250000   0.9750000), wk =   0.0030000
        k(  309) = (   0.7750000  -0.0750000   0.9250000), wk =   0.0030000
        k(  310) = (   0.7250000  -0.0250000   0.8750000), wk =   0.0030000
        k(  311) = (   0.6750000   0.0250000   0.8250000), wk =   0.0030000
        k(  312) = (   0.6250000   0.0750000   0.7750000), wk =   0.0030000
        k(  313) = (   0.5750000   0.1250000   0.7250000), wk =   0.0030000
        k(  314) = (   0.5250000   0.1750000   0.6750000), wk =   0.0030000
        k(  315) = (   0.4750000   0.2250000   0.6250000), wk =   0.0030000
        k(  316) = (   0.4250000   0.2750000   0.5750000), wk =   0.0030000
        k(  317) = (  -0.0750000   0.8750000   0.0750000), wk =   0.0015000
        k(  318) = (   0.8750000  -0.0750000   1.0250000), wk =   0.0030000
        k(  319) = (   0.8250000  -0.0250000   0.9750000), wk =   0.0030000
        k(  320) = (   0.7750000   0.0250000   0.9250000), wk =   0.0030000
        k(  321) = (   0.7250000   0.0750000   0.8750000), wk =   0.0030000
        k(  322) = (   0.6750000   0.1250000   0.8250000), wk =   0.0030000
        k(  323) = (   0.6250000   0.1750000   0.7750000), wk =   0.0030000
        k(  324) = (   0.5750000   0.2250000   0.7250000), wk =   0.0030000
        k(  325) = (   0.5250000   0.2750000   0.6750000), wk =   0.0030000
        k(  326) = (   0.4750000   0.3250000   0.6250000), wk =   0.0030000
        k(  327) = (  -0.0750000  -1.0250000   0.0750000), wk =   0.0015000
        k(  328) = (  -0.1250000  -0.9750000   0.0250000), wk =   0.0030000
        k(  329) = (  -0.1750000  -0.9250000  -0.0250000), wk =   0.0030000
        k(  330) = (  -0.2250000  -0.8750000  -0.0750000), wk =   0.0030000
        k(  331) = (  -0.2750000  -0.8250000  -0.1250000), wk =   0.0030000
        k(  332) = (  -0.3250000  -0.7750000  -0.1750000), wk =   0.0030000
        k(  333) = (  -0.3750000  -0.7250000  -0.2250000), wk =   0.0030000
        k(  334) = (  -0.4250000  -0.6750000  -0.2750000), wk =   0.0030000
        k(  335) = (  -0.0750000  -0.9250000   0.0750000), wk =   0.0015000
        k(  336) = (  -0.1250000  -0.8750000   0.0250000), wk =   0.0030000
        k(  337) = (  -0.1750000  -0.8250000  -0.0250000), wk =   0.0030000
        k(  338) = (  -0.2250000  -0.7750000  -0.0750000), wk =   0.0030000
        k(  339) = (  -0.2750000  -0.7250000  -0.1250000), wk =   0.0030000
        k(  340) = (  -0.3250000  -0.6750000  -0.1750000), wk =   0.0030000
        k(  341) = (  -0.3750000  -0.6250000  -0.2250000), wk =   0.0030000
        k(  342) = (  -0.0750000  -0.8250000   0.0750000), wk =   0.0015000
        k(  343) = (  -0.1250000  -0.7750000   0.0250000), wk =   0.0030000
        k(  344) = (  -0.1750000  -0.7250000  -0.0250000), wk =   0.0030000
        k(  345) = (  -0.2250000  -0.6750000  -0.0750000), wk =   0.0030000
        k(  346) = (  -0.2750000  -0.6250000  -0.1250000), wk =   0.0030000
        k(  347) = (  -0.3250000  -0.5750000  -0.1750000), wk =   0.0030000
        k(  348) = (  -0.0750000  -0.7250000   0.0750000), wk =   0.0015000
        k(  349) = (  -0.1250000  -0.6750000   0.0250000), wk =   0.0030000
        k(  350) = (  -0.1750000  -0.6250000  -0.0250000), wk =   0.0030000
        k(  351) = (  -0.2250000  -0.5750000  -0.0750000), wk =   0.0030000
        k(  352) = (  -0.2750000  -0.5250000  -0.1250000), wk =   0.0030000
        k(  353) = (  -0.0750000  -0.6250000   0.0750000), wk =   0.0015000
        k(  354) = (  -0.1250000  -0.5750000   0.0250000), wk =   0.0030000
        k(  355) = (  -0.1750000  -0.5250000  -0.0250000), wk =   0.0030000
        k(  356) = (  -0.2250000  -0.4750000  -0.0750000), wk =   0.0030000
        k(  357) = (  -0.0750000  -0.5250000   0.0750000), wk =   0.0015000
        k(  358) = (  -0.1250000  -0.4750000   0.0250000), wk =   0.0030000
        k(  359) = (  -0.1750000  -0.4250000  -0.0250000), wk =   0.0030000
        k(  360) = (  -0.0750000  -0.4250000   0.0750000), wk =   0.0015000
        k(  361) = (  -0.1250000  -0.3750000   0.0250000), wk =   0.0030000
        k(  362) = (  -0.0750000  -0.3250000   0.0750000), wk =   0.0015000
        k(  363) = (  -0.1250000   0.1250000   0.1250000), wk =   0.0005000
        k(  364) = (  -0.1750000   0.1750000   0.0750000), wk =   0.0015000
        k(  365) = (  -0.2250000   0.2250000   0.0250000), wk =   0.0015000
        k(  366) = (  -0.2750000   0.2750000  -0.0250000), wk =   0.0015000
        k(  367) = (  -0.3250000   0.3250000  -0.0750000), wk =   0.0015000
        k(  368) = (  -0.3750000   0.3750000  -0.1250000), wk =   0.0015000
        k(  369) = (  -0.4250000   0.4250000  -0.1750000), wk =   0.0015000
        k(  370) = (  -0.4750000   0.4750000  -0.2250000), wk =   0.0015000
        k(  371) = (   0.4750000  -0.4750000   0.7250000), wk =   0.0015000
        k(  372) = (   0.4250000  -0.4250000   0.6750000), wk =   0.0015000
        k(  373) = (   0.3750000  -0.3750000   0.6250000), wk =   0.0015000
        k(  374) = (   0.3250000  -0.3250000   0.5750000), wk =   0.0015000
        k(  375) = (   0.2750000  -0.2750000   0.5250000), wk =   0.0015000
        k(  376) = (   0.2250000  -0.2250000   0.4750000), wk =   0.0015000
        k(  377) = (   0.1750000  -0.1750000   0.4250000), wk =   0.0015000
        k(  378) = (   0.1250000  -0.1250000   0.3750000), wk =   0.0015000
        k(  379) = (  -0.1250000   0.2250000   0.1250000), wk =   0.0015000
        k(  380) = (  -0.1750000   0.2750000   0.0750000), wk =   0.0030000
        k(  381) = (  -0.2250000   0.3250000   0.0250000), wk =   0.0030000
        k(  382) = (  -0.2750000   0.3750000  -0.0250000), wk =   0.0030000
        k(  383) = (  -0.3250000   0.4250000  -0.0750000), wk =   0.0030000
        k(  384) = (  -0.3750000   0.4750000  -0.1250000), wk =   0.0030000
        k(  385) = (  -0.4250000   0.5250000  -0.1750000), wk =   0.0030000
        k(  386) = (   0.5250000  -0.4250000   0.7750000), wk =   0.0030000
        k(  387) = (   0.4750000  -0.3750000   0.7250000), wk =   0.0030000
        k(  388) = (   0.4250000  -0.3250000   0.6750000), wk =   0.0030000
        k(  389) = (   0.3750000  -0.2750000   0.6250000), wk =   0.0030000
        k(  390) = (   0.3250000  -0.2250000   0.5750000), wk =   0.0030000
        k(  391) = (   0.2750000  -0.1750000   0.5250000), wk =   0.0030000
        k(  392) = (   0.2250000  -0.1250000   0.4750000), wk =   0.0030000
        k(  393) = (   0.1750000  -0.0750000   0.4250000), wk =   0.0030000
        k(  394) = (  -0.1250000   0.3250000   0.1250000), wk =   0.0015000
        k(  395) = (  -0.1750000   0.3750000   0.0750000), wk =   0.0030000
        k(  396) = (  -0.2250000   0.4250000   0.0250000), wk =   0.0030000
        k(  397) = (  -0.2750000   0.4750000  -0.0250000), wk =   0.0030000
        k(  398) = (  -0.3250000   0.5250000  -0.0750000), wk =   0.0030000
        k(  399) = (  -0.3750000   0.5750000  -0.1250000), wk =   0.0030000
        k(  400) = (   0.5750000  -0.3750000   0.8250000), wk =   0.0030000
        k(  401) = (   0.5250000  -0.3250000   0.7750000), wk =   0.0030000
        k(  402) = (   0.4750000  -0.2750000   0.7250000), wk =   0.0030000
        k(  403) = (   0.4250000  -0.2250000   0.6750000), wk =   0.0030000
        k(  404) = (   0.3750000  -0.1750000   0.6250000), wk =   0.0030000
        k(  405) = (   0.3250000  -0.1250000   0.5750000), wk =   0.0030000
        k(  406) = (   0.2750000  -0.0750000   0.5250000), wk =   0.0030000
        k(  407) = (   0.2250000  -0.0250000   0.4750000), wk =   0.0030000
        k(  408) = (  -0.1250000   0.4250000   0.1250000), wk =   0.0015000
        k(  409) = (  -0.1750000   0.4750000   0.0750000), wk =   0.0030000
        k(  410) = (  -0.2250000   0.5250000   0.0250000), wk =   0.0030000
        k(  411) = (  -0.2750000   0.5750000  -0.0250000), wk =   0.0030000
        k(  412) = (  -0.3250000   0.6250000  -0.0750000), wk =   0.0030000
        k(  413) = (   0.6250000  -0.3250000   0.8750000), wk =   0.0030000
        k(  414) = (   0.5750000  -0.2750000   0.8250000), wk =   0.0030000
        k(  415) = (   0.5250000  -0.2250000   0.7750000), wk =   0.0030000
        k(  416) = (   0.4750000  -0.1750000   0.7250000), wk =   0.0030000
        k(  417) = (   0.4250000  -0.1250000   0.6750000), wk =   0.0030000
        k(  418) = (   0.3750000  -0.0750000   0.6250000), wk =   0.0030000
        k(  419) = (   0.3250000  -0.0250000   0.5750000), wk =   0.0030000
        k(  420) = (   0.2750000   0.0250000   0.5250000), wk =   0.0030000
        k(  421) = (  -0.1250000   0.5250000   0.1250000), wk =   0.0015000
        k(  422) = (  -0.1750000   0.5750000   0.0750000), wk =   0.0030000
        k(  423) = (  -0.2250000   0.6250000   0.0250000), wk =   0.0030000
        k(  424) = (  -0.2750000   0.6750000  -0.0250000), wk =   0.0030000
        k(  425) = (   0.6750000  -0.2750000   0.9250000), wk =   0.0030000
        k(  426) = (   0.6250000  -0.2250000   0.8750000), wk =   0.0030000
        k(  427) = (   0.5750000  -0.1750000   0.8250000), wk =   0.0030000
        k(  428) = (   0.5250000  -0.1250000   0.7750000), wk =   0.0030000
        k(  429) = (   0.4750000  -0.0750000   0.7250000), wk =   0.0030000
        k(  430) = (   0.4250000  -0.0250000   0.6750000), wk =   0.0030000
        k(  431) = (   0.3750000   0.0250000   0.6250000), wk =   0.0030000
        k(  432) = (   0.3250000   0.0750000   0.5750000), wk =   0.0030000
        k(  433) = (  -0.1250000   0.6250000   0.1250000), wk =   0.0015000
        k(  434) = (  -0.1750000   0.6750000   0.0750000), wk =   0.0030000
        k(  435) = (  -0.2250000   0.7250000   0.0250000), wk =   0.0030000
        k(  436) = (   0.7250000  -0.2250000   0.9750000), wk =   0.0030000
        k(  437) = (   0.6750000  -0.1750000   0.9250000), wk =   0.0030000
        k(  438) = (   0.6250000  -0.1250000   0.8750000), wk =   0.0030000
        k(  439) = (   0.5750000  -0.0750000   0.8250000), wk =   0.0030000
        k(  440) = (   0.5250000  -0.0250000   0.7750000), wk =   0.0030000
        k(  441) = (   0.4750000   0.0250000   0.7250000), wk =   0.0030000
        k(  442) = (   0.4250000   0.0750000   0.6750000), wk =   0.0030000
        k(  443) = (   0.3750000   0.1250000   0.6250000), wk =   0.0030000
        k(  444) = (  -0.1250000   0.7250000   0.1250000), wk =   0.0015000
        k(  445) = (  -0.1750000   0.7750000   0.0750000), wk =   0.0030000
        k(  446) = (   0.7750000  -0.1750000   1.0250000), wk =   0.0030000
        k(  447) = (   0.7250000  -0.1250000   0.9750000), wk =   0.0030000
        k(  448) = (   0.6750000  -0.0750000   0.9250000), wk =   0.0030000
        k(  449) = (   0.6250000  -0.0250000   0.8750000), wk =   0.0030000
        k(  450) = (   0.5750000   0.0250000   0.8250000), wk =   0.0030000
        k(  451) = (   0.5250000   0.0750000   0.7750000), wk =   0.0030000
        k(  452) = (   0.4750000   0.1250000   0.7250000), wk =   0.0030000
        k(  453) = (   0.4250000   0.1750000   0.6750000), wk =   0.0030000
        k(  454) = (  -0.1250000   0.8250000   0.1250000), wk =   0.0015000
        k(  455) = (   0.8250000  -0.1250000   1.0750000), wk =   0.0030000
        k(  456) = (   0.7750000  -0.0750000   1.0250000), wk =   0.0030000
        k(  457) = (   0.7250000  -0.0250000   0.9750000), wk =   0.0030000
        k(  458) = (   0.6750000   0.0250000   0.9250000), wk =   0.0030000
        k(  459) = (   0.6250000   0.0750000   0.8750000), wk =   0.0030000
        k(  460) = (   0.5750000   0.1250000   0.8250000), wk =   0.0030000
        k(  461) = (   0.5250000   0.1750000   0.7750000), wk =   0.0030000
        k(  462) = (   0.4750000   0.2250000   0.7250000), wk =   0.0030000
        k(  463) = (  -0.1250000  -1.0750000   0.1250000), wk =   0.0015000
        k(  464) = (  -0.1750000  -1.0250000   0.0750000), wk =   0.0030000
        k(  465) = (  -0.2250000  -0.9750000   0.0250000), wk =   0.0030000
        k(  466) = (  -0.2750000  -0.9250000  -0.0250000), wk =   0.0030000
        k(  467) = (  -0.3250000  -0.8750000  -0.0750000), wk =   0.0030000
        k(  468) = (  -0.3750000  -0.8250000  -0.1250000), wk =   0.0030000
        k(  469) = (  -0.4250000  -0.7750000  -0.1750000), wk =   0.0030000
        k(  470) = (  -0.1250000  -0.9750000   0.1250000), wk =   0.0015000
        k(  471) = (  -0.1750000  -0.9250000   0.0750000), wk =   0.0030000
        k(  472) = (  -0.2250000  -0.8750000   0.0250000), wk =   0.0030000
        k(  473) = (  -0.2750000  -0.8250000  -0.0250000), wk =   0.0030000
        k(  474) = (  -0.3250000  -0.7750000  -0.0750000), wk =   0.0030000
        k(  475) = (  -0.3750000  -0.7250000  -0.1250000), wk =   0.0030000
        k(  476) = (  -0.1250000  -0.8750000   0.1250000), wk =   0.0015000
        k(  477) = (  -0.1750000  -0.8250000   0.0750000), wk =   0.0030000
        k(  478) = (  -0.2250000  -0.7750000   0.0250000), wk =   0.0030000
        k(  479) = (  -0.2750000  -0.7250000  -0.0250000), wk =   0.0030000
        k(  480) = (  -0.3250000  -0.6750000  -0.0750000), wk =   0.0030000
        k(  481) = (  -0.1250000  -0.7750000   0.1250000), wk =   0.0015000
        k(  482) = (  -0.1750000  -0.7250000   0.0750000), wk =   0.0030000
        k(  483) = (  -0.2250000  -0.6750000   0.0250000), wk =   0.0030000
        k(  484) = (  -0.2750000  -0.6250000  -0.0250000), wk =   0.0030000
        k(  485) = (  -0.1250000  -0.6750000   0.1250000), wk =   0.0015000
        k(  486) = (  -0.1750000  -0.6250000   0.0750000), wk =   0.0030000
        k(  487) = (  -0.2250000  -0.5750000   0.0250000), wk =   0.0030000
        k(  488) = (  -0.1250000  -0.5750000   0.1250000), wk =   0.0015000
        k(  489) = (  -0.1750000  -0.5250000   0.0750000), wk =   0.0030000
        k(  490) = (  -0.1250000  -0.4750000   0.1250000), wk =   0.0015000
        k(  491) = (  -0.1750000   0.1750000   0.1750000), wk =   0.0005000
        k(  492) = (  -0.2250000   0.2250000   0.1250000), wk =   0.0015000
        k(  493) = (  -0.2750000   0.2750000   0.0750000), wk =   0.0015000
        k(  494) = (  -0.3250000   0.3250000   0.0250000), wk =   0.0015000
        k(  495) = (  -0.3750000   0.3750000  -0.0250000), wk =   0.0015000
        k(  496) = (  -0.4250000   0.4250000  -0.0750000), wk =   0.0015000
        k(  497) = (  -0.4750000   0.4750000  -0.1250000), wk =   0.0015000
        k(  498) = (   0.4750000  -0.4750000   0.8250000), wk =   0.0015000
        k(  499) = (   0.4250000  -0.4250000   0.7750000), wk =   0.0015000
        k(  500) = (   0.3750000  -0.3750000   0.7250000), wk =   0.0015000
        k(  501) = (   0.3250000  -0.3250000   0.6750000), wk =   0.0015000
        k(  502) = (   0.2750000  -0.2750000   0.6250000), wk =   0.0015000
        k(  503) = (   0.2250000  -0.2250000   0.5750000), wk =   0.0015000
        k(  504) = (   0.1750000  -0.1750000   0.5250000), wk =   0.0015000
        k(  505) = (  -0.1750000   0.2750000   0.1750000), wk =   0.0015000
        k(  506) = (  -0.2250000   0.3250000   0.1250000), wk =   0.0030000
        k(  507) = (  -0.2750000   0.3750000   0.0750000), wk =   0.0030000
        k(  508) = (  -0.3250000   0.4250000   0.0250000), wk =   0.0030000
        k(  509) = (  -0.3750000   0.4750000  -0.0250000), wk =   0.0030000
        k(  510) = (  -0.4250000   0.5250000  -0.0750000), wk =   0.0030000
        k(  511) = (   0.5250000  -0.4250000   0.8750000), wk =   0.0030000
        k(  512) = (   0.4750000  -0.3750000   0.8250000), wk =   0.0030000
        k(  513) = (   0.4250000  -0.3250000   0.7750000), wk =   0.0030000
        k(  514) = (   0.3750000  -0.2750000   0.7250000), wk =   0.0030000
        k(  515) = (   0.3250000  -0.2250000   0.6750000), wk =   0.0030000
        k(  516) = (   0.2750000  -0.1750000   0.6250000), wk =   0.0030000
        k(  517) = (   0.2250000  -0.1250000   0.5750000), wk =   0.0030000
        k(  518) = (  -0.1750000   0.3750000   0.1750000), wk =   0.0015000
        k(  519) = (  -0.2250000   0.4250000   0.1250000), wk =   0.0030000
        k(  520) = (  -0.2750000   0.4750000   0.0750000), wk =   0.0030000
        k(  521) = (  -0.3250000   0.5250000   0.0250000), wk =   0.0030000
        k(  522) = (  -0.3750000   0.5750000  -0.0250000), wk =   0.0030000
        k(  523) = (   0.5750000  -0.3750000   0.9250000), wk =   0.0030000
        k(  524) = (   0.5250000  -0.3250000   0.8750000), wk =   0.0030000
        k(  525) = (   0.4750000  -0.2750000   0.8250000), wk =   0.0030000
        k(  526) = (   0.4250000  -0.2250000   0.7750000), wk =   0.0030000
        k(  527) = (   0.3750000  -0.1750000   0.7250000), wk =   0.0030000
        k(  528) = (   0.3250000  -0.1250000   0.6750000), wk =   0.0030000
        k(  529) = (   0.2750000  -0.0750000   0.6250000), wk =   0.0030000
        k(  530) = (  -0.1750000   0.4750000   0.1750000), wk =   0.0015000
        k(  531) = (  -0.2250000   0.5250000   0.1250000), wk =   0.0030000
        k(  532) = (  -0.2750000   0.5750000   0.0750000), wk =   0.0030000
        k(  533) = (  -0.3250000   0.6250000   0.0250000), wk =   0.0030000
        k(  534) = (   0.6250000  -0.3250000   0.9750000), wk =   0.0030000
        k(  535) = (   0.5750000  -0.2750000   0.9250000), wk =   0.0030000
        k(  536) = (   0.5250000  -0.2250000   0.8750000), wk =   0.0030000
        k(  537) = (   0.4750000  -0.1750000   0.8250000), wk =   0.0030000
        k(  538) = (   0.4250000  -0.1250000   0.7750000), wk =   0.0030000
        k(  539) = (   0.3750000  -0.0750000   0.7250000), wk =   0.0030000
        k(  540) = (   0.3250000  -0.0250000   0.6750000), wk =   0.0030000
        k(  541) = (  -0.1750000   0.5750000   0.1750000), wk =   0.0015000
        k(  542) = (  -0.2250000   0.6250000   0.1250000), wk =   0.0030000
        k(  543) = (  -0.2750000   0.6750000   0.0750000), wk =   0.0030000
        k(  544) = (   0.6750000  -0.2750000   1.0250000), wk =   0.0030000
        k(  545) = (   0.6250000  -0.2250000   0.9750000), wk =   0.0030000
        k(  546) = (   0.5750000  -0.1750000   0.9250000), wk =   0.0030000
        k(  547) = (   0.5250000  -0.1250000   0.8750000), wk =   0.0030000
        k(  548) = (   0.4750000  -0.0750000   0.8250000), wk =   0.0030000
        k(  549) = (   0.4250000  -0.0250000   0.7750000), wk =   0.0030000
        k(  550) = (   0.3750000   0.0250000   0.7250000), wk =   0.0030000
        k(  551) = (  -0.1750000   0.6750000   0.1750000), wk =   0.0015000
        k(  552) = (  -0.2250000   0.7250000   0.1250000), wk =   0.0030000
        k(  553) = (   0.7250000  -0.2250000   1.0750000), wk =   0.0030000
        k(  554) = (   0.6750000  -0.1750000   1.0250000), wk =   0.0030000
        k(  555) = (   0.6250000  -0.1250000   0.9750000), wk =   0.0030000
        k(  556) = (   0.5750000  -0.0750000   0.9250000), wk =   0.0030000
        k(  557) = (   0.5250000  -0.0250000   0.8750000), wk =   0.0030000
        k(  558) = (   0.4750000   0.0250000   0.8250000), wk =   0.0030000
        k(  559) = (   0.4250000   0.0750000   0.7750000), wk =   0.0030000
        k(  560) = (  -0.1750000   0.7750000   0.1750000), wk =   0.0015000
        k(  561) = (   0.7750000  -0.1750000   1.1250000), wk =   0.0030000
        k(  562) = (   0.7250000  -0.1250000   1.0750000), wk =   0.0030000
        k(  563) = (   0.6750000  -0.0750000   1.0250000), wk =   0.0030000
        k(  564) = (   0.6250000  -0.0250000   0.9750000), wk =   0.0030000
        k(  565) = (   0.5750000   0.0250000   0.9250000), wk =   0.0030000
        k(  566) = (   0.5250000   0.0750000   0.8750000), wk =   0.0030000
        k(  567) = (   0.4750000   0.1250000   0.8250000), wk =   0.0030000
        k(  568) = (  -0.1750000  -1.1250000   0.1750000), wk =   0.0015000
        k(  569) = (  -0.2250000  -1.0750000   0.1250000), wk =   0.0030000
        k(  570) = (  -0.2750000  -1.0250000   0.0750000), wk =   0.0030000
        k(  571) = (  -0.3250000  -0.9750000   0.0250000), wk =   0.0030000
        k(  572) = (  -0.3750000  -0.9250000  -0.0250000), wk =   0.0030000
        k(  573) = (  -0.4250000  -0.8750000  -0.0750000), wk =   0.0030000
        k(  574) = (  -0.1750000  -1.0250000   0.1750000), wk =   0.0015000
        k(  575) = (  -0.2250000  -0.9750000   0.1250000), wk =   0.0030000
        k(  576) = (  -0.2750000  -0.9250000   0.0750000), wk =   0.0030000
        k(  577) = (  -0.3250000  -0.8750000   0.0250000), wk =   0.0030000
        k(  578) = (  -0.3750000  -0.8250000  -0.0250000), wk =   0.0030000
        k(  579) = (  -0.1750000  -0.9250000   0.1750000), wk =   0.0015000
        k(  580) = (  -0.2250000  -0.8750000   0.1250000), wk =   0.0030000
        k(  581) = (  -0.2750000  -0.8250000   0.0750000), wk =   0.0030000
        k(  582) = (  -0.3250000  -0.7750000   0.0250000), wk =   0.0030000
        k(  583) = (  -0.1750000  -0.8250000   0.1750000), wk =   0.0015000
        k(  584) = (  -0.2250000  -0.7750000   0.1250000), wk =   0.0030000
        k(  585) = (  -0.2750000  -0.7250000   0.0750000), wk =   0.0030000
        k(  586) = (  -0.1750000  -0.7250000   0.1750000), wk =   0.0015000
        k(  587) = (  -0.2250000  -0.6750000   0.1250000), wk =   0.0030000
        k(  588) = (  -0.1750000  -0.6250000   0.1750000), wk =   0.0015000
        k(  589) = (  -0.2250000   0.2250000   0.2250000), wk =   0.0005000
        k(  590) = (  -0.2750000   0.2750000   0.1750000), wk =   0.0015000
        k(  591) = (  -0.3250000   0.3250000   0.1250000), wk =   0.0015000
        k(  592) = (  -0.3750000   0.3750000   0.0750000), wk =   0.0015000
        k(  593) = (  -0.4250000   0.4250000   0.0250000), wk =   0.0015000
        k(  594) = (  -0.4750000   0.4750000  -0.0250000), wk =   0.0015000
        k(  595) = (   0.4750000  -0.4750000   0.9250000), wk =   0.0015000
        k(  596) = (   0.4250000  -0.4250000   0.8750000), wk =   0.0015000
        k(  597) = (   0.3750000  -0.3750000   0.8250000), wk =   0.0015000
        k(  598) = (   0.3250000  -0.3250000   0.7750000), wk =   0.0015000
        k(  599) = (   0.2750000  -0.2750000   0.7250000), wk =   0.0015000
        k(  600) = (   0.2250000  -0.2250000   0.6750000), wk =   0.0015000
        k(  601) = (  -0.2250000   0.3250000   0.2250000), wk =   0.0015000
        k(  602) = (  -0.2750000   0.3750000   0.1750000), wk =   0.0030000
        k(  603) = (  -0.3250000   0.4250000   0.1250000), wk =   0.0030000
        k(  604) = (  -0.3750000   0.4750000   0.0750000), wk =   0.0030000
        k(  605) = (  -0.4250000   0.5250000   0.0250000), wk =   0.0030000
        k(  606) = (   0.5250000  -0.4250000   0.9750000), wk =   0.0030000
        k(  607) = (   0.4750000  -0.3750000   0.9250000), wk =   0.0030000
        k(  608) = (   0.4250000  -0.3250000   0.8750000), wk =   0.0030000
        k(  609) = (   0.3750000  -0.2750000   0.8250000), wk =   0.0030000
        k(  610) = (   0.3250000  -0.2250000   0.7750000), wk =   0.0030000
        k(  611) = (   0.2750000  -0.1750000   0.7250000), wk =   0.0030000
        k(  612) = (  -0.2250000   0.4250000   0.2250000), wk =   0.0015000
        k(  613) = (  -0.2750000   0.4750000   0.1750000), wk =   0.0030000
        k(  614) = (  -0.3250000   0.5250000   0.1250000), wk =   0.0030000
        k(  615) = (  -0.3750000   0.5750000   0.0750000), wk =   0.0030000
        k(  616) = (   0.5750000  -0.3750000   1.0250000), wk =   0.0030000
        k(  617) = (   0.5250000  -0.3250000   0.9750000), wk =   0.0030000
        k(  618) = (   0.4750000  -0.2750000   0.9250000), wk =   0.0030000
        k(  619) = (   0.4250000  -0.2250000   0.8750000), wk =   0.0030000
        k(  620) = (   0.3750000  -0.1750000   0.8250000), wk =   0.0030000
        k(  621) = (   0.3250000  -0.1250000   0.7750000), wk =   0.0030000
        k(  622) = (  -0.2250000   0.5250000   0.2250000), wk =   0.0015000
        k(  623) = (  -0.2750000   0.5750000   0.1750000), wk =   0.0030000
        k(  624) = (  -0.3250000   0.6250000   0.1250000), wk =   0.0030000
        k(  625) = (   0.6250000  -0.3250000   1.0750000), wk =   0.0030000
        k(  626) = (   0.5750000  -0.2750000   1.0250000), wk =   0.0030000
        k(  627) = (   0.5250000  -0.2250000   0.9750000), wk =   0.0030000
        k(  628) = (   0.4750000  -0.1750000   0.9250000), wk =   0.0030000
        k(  629) = (   0.4250000  -0.1250000   0.8750000), wk =   0.0030000
        k(  630) = (   0.3750000  -0.0750000   0.8250000), wk =   0.0030000
        k(  631) = (  -0.2250000   0.6250000   0.2250000), wk =   0.0015000
        k(  632) = (  -0.2750000   0.6750000   0.1750000), wk =   0.0030000
        k(  633) = (   0.6750000  -0.2750000   1.1250000), wk =   0.0030000
        k(  634) = (   0.6250000  -0.2250000   1.0750000), wk =   0.0030000
        k(  635) = (   0.5750000  -0.1750000   1.0250000), wk =   0.0030000
        k(  636) = (   0.5250000  -0.1250000   0.9750000), wk =   0.0030000
        k(  637) = (   0.4750000  -0.0750000   0.9250000), wk =   0.0030000
        k(  638) = (   0.4250000  -0.0250000   0.8750000), wk =   0.0030000
        k(  639) = (  -0.2250000   0.7250000   0.2250000), wk =   0.0015000
        k(  640) = (   0.7250000  -0.2250000   1.1750000), wk =   0.0030000
        k(  641) = (   0.6750000  -0.1750000   1.1250000), wk =   0.0030000
        k(  642) = (   0.6250000  -0.1250000   1.0750000), wk =   0.0030000
        k(  643) = (   0.5750000  -0.0750000   1.0250000), wk =   0.0030000
        k(  644) = (   0.5250000  -0.0250000   0.9750000), wk =   0.0030000
        k(  645) = (   0.4750000   0.0250000   0.9250000), wk =   0.0030000
        k(  646) = (  -0.2250000  -1.1750000   0.2250000), wk =   0.0015000
        k(  647) = (  -0.2750000  -1.1250000   0.1750000), wk =   0.0030000
        k(  648) = (  -0.3250000  -1.0750000   0.1250000), wk =   0.0030000
        k(  649) = (  -0.3750000  -1.0250000   0.0750000), wk =   0.0030000
        k(  650) = (  -0.4250000  -0.9750000   0.0250000), wk =   0.0030000
        k(  651) = (  -0.2250000  -1.0750000   0.2250000), wk =   0.0015000
        k(  652) = (  -0.2750000  -1.0250000   0.1750000), wk =   0.0030000
        k(  653) = (  -0.3250000  -0.9750000   0.1250000), wk =   0.0030000
        k(  654) = (  -0.3750000  -0.9250000   0.0750000), wk =   0.0030000
        k(  655) = (  -0.2250000  -0.9750000   0.2250000), wk =   0.0015000
        k(  656) = (  -0.2750000  -0.9250000   0.1750000), wk =   0.0030000
        k(  657) = (  -0.3250000  -0.8750000   0.1250000), wk =   0.0030000
        k(  658) = (  -0.2250000  -0.8750000   0.2250000), wk =   0.0015000
        k(  659) = (  -0.2750000  -0.8250000   0.1750000), wk =   0.0030000
        k(  660) = (  -0.2250000  -0.7750000   0.2250000), wk =   0.0015000
        k(  661) = (  -0.2750000   0.2750000   0.2750000), wk =   0.0005000
        k(  662) = (  -0.3250000   0.3250000   0.2250000), wk =   0.0015000
        k(  663) = (  -0.3750000   0.3750000   0.1750000), wk =   0.0015000
        k(  664) = (  -0.4250000   0.4250000   0.1250000), wk =   0.0015000
        k(  665) = (  -0.4750000   0.4750000   0.0750000), wk =   0.0015000
        k(  666) = (   0.4750000  -0.4750000   1.0250000), wk =   0.0015000
        k(  667) = (   0.4250000  -0.4250000   0.9750000), wk =   0.0015000
        k(  668) = (   0.3750000  -0.3750000   0.9250000), wk =   0.0015000
        k(  669) = (   0.3250000  -0.3250000   0.8750000), wk =   0.0015000
        k(  670) = (   0.2750000  -0.2750000   0.8250000), wk =   0.0015000
        k(  671) = (  -0.2750000   0.3750000   0.2750000), wk =   0.0015000
        k(  672) = (  -0.3250000   0.4250000   0.2250000), wk =   0.0030000
        k(  673) = (  -0.3750000   0.4750000   0.1750000), wk =   0.0030000
        k(  674) = (  -0.4250000   0.5250000   0.1250000), wk =   0.0030000
        k(  675) = (   0.5250000  -0.4250000   1.0750000), wk =   0.0030000
        k(  676) = (   0.4750000  -0.3750000   1.0250000), wk =   0.0030000
        k(  677) = (   0.4250000  -0.3250000   0.9750000), wk =   0.0030000
        k(  678) = (   0.3750000  -0.2750000   0.9250000), wk =   0.0030000
        k(  679) = (   0.3250000  -0.2250000   0.8750000), wk =   0.0030000
        k(  680) = (  -0.2750000   0.4750000   0.2750000), wk =   0.0015000
        k(  681) = (  -0.3250000   0.5250000   0.2250000), wk =   0.0030000
        k(  682) = (  -0.3750000   0.5750000   0.1750000), wk =   0.0030000
        k(  683) = (   0.5750000  -0.3750000   1.1250000), wk =   0.0030000
        k(  684) = (   0.5250000  -0.3250000   1.0750000), wk =   0.0030000
        k(  685) = (   0.4750000  -0.2750000   1.0250000), wk =   0.0030000
        k(  686) = (   0.4250000  -0.2250000   0.9750000), wk =   0.0030000
        k(  687) = (   0.3750000  -0.1750000   0.9250000), wk =   0.0030000
        k(  688) = (  -0.2750000   0.5750000   0.2750000), wk =   0.0015000
        k(  689) = (  -0.3250000   0.6250000   0.2250000), wk =   0.0030000
        k(  690) = (   0.6250000  -0.3250000   1.1750000), wk =   0.0030000
        k(  691) = (   0.5750000  -0.2750000   1.1250000), wk =   0.0030000
        k(  692) = (   0.5250000  -0.2250000   1.0750000), wk =   0.0030000
        k(  693) = (   0.4750000  -0.1750000   1.0250000), wk =   0.0030000
        k(  694) = (   0.4250000  -0.1250000   0.9750000), wk =   0.0030000
        k(  695) = (  -0.2750000   0.6750000   0.2750000), wk =   0.0015000
        k(  696) = (   0.6750000  -0.2750000   1.2250000), wk =   0.0030000
        k(  697) = (   0.6250000  -0.2250000   1.1750000), wk =   0.0030000
        k(  698) = (   0.5750000  -0.1750000   1.1250000), wk =   0.0030000
        k(  699) = (   0.5250000  -0.1250000   1.0750000), wk =   0.0030000
        k(  700) = (   0.4750000  -0.0750000   1.0250000), wk =   0.0030000
        k(  701) = (  -0.2750000  -1.2250000   0.2750000), wk =   0.0015000
        k(  702) = (  -0.3250000  -1.1750000   0.2250000), wk =   0.0030000
        k(  703) = (  -0.3750000  -1.1250000   0.1750000), wk =   0.0030000
        k(  704) = (  -0.4250000  -1.0750000   0.1250000), wk =   0.0030000
        k(  705) = (  -0.2750000  -1.1250000   0.2750000), wk =   0.0015000
        k(  706) = (  -0.3250000  -1.0750000   0.2250000), wk =   0.0030000
        k(  707) = (  -0.3750000  -1.0250000   0.1750000), wk =   0.0030000
        k(  708) = (  -0.2750000  -1.0250000   0.2750000), wk =   0.0015000
        k(  709) = (  -0.3250000  -0.9750000   0.2250000), wk =   0.0030000
        k(  710) = (  -0.2750000  -0.9250000   0.2750000), wk =   0.0015000
        k(  711) = (  -0.3250000   0.3250000   0.3250000), wk =   0.0005000
        k(  712) = (  -0.3750000   0.3750000   0.2750000), wk =   0.0015000
        k(  713) = (  -0.4250000   0.4250000   0.2250000), wk =   0.0015000
        k(  714) = (  -0.4750000   0.4750000   0.1750000), wk =   0.0015000
        k(  715) = (   0.4750000  -0.4750000   1.1250000), wk =   0.0015000
        k(  716) = (   0.4250000  -0.4250000   1.0750000), wk =   0.0015000
        k(  717) = (   0.3750000  -0.3750000   1.0250000), wk =   0.0015000
        k(  718) = (   0.3250000  -0.3250000   0.9750000), wk =   0.0015000
        k(  719) = (  -0.3250000   0.4250000   0.3250000), wk =   0.0015000
        k(  720) = (  -0.3750000   0.4750000   0.2750000), wk =   0.0030000
        k(  721) = (  -0.4250000   0.5250000   0.2250000), wk =   0.0030000
        k(  722) = (   0.5250000  -0.4250000   1.1750000), wk =   0.0030000
        k(  723) = (   0.4750000  -0.3750000   1.1250000), wk =   0.0030000
        k(  724) = (   0.4250000  -0.3250000   1.0750000), wk =   0.0030000
        k(  725) = (   0.3750000  -0.2750000   1.0250000), wk =   0.0030000
        k(  726) = (  -0.3250000   0.5250000   0.3250000), wk =   0.0015000
        k(  727) = (  -0.3750000   0.5750000   0.2750000), wk =   0.0030000
        k(  728) = (   0.5750000  -0.3750000   1.2250000), wk =   0.0030000
        k(  729) = (   0.5250000  -0.3250000   1.1750000), wk =   0.0030000
        k(  730) = (   0.4750000  -0.2750000   1.1250000), wk =   0.0030000
        k(  731) = (   0.4250000  -0.2250000   1.0750000), wk =   0.0030000
        k(  732) = (  -0.3250000   0.6250000   0.3250000), wk =   0.0015000
        k(  733) = (   0.6250000  -0.3250000   1.2750000), wk =   0.0030000
        k(  734) = (   0.5750000  -0.2750000   1.2250000), wk =   0.0030000
        k(  735) = (   0.5250000  -0.2250000   1.1750000), wk =   0.0030000
        k(  736) = (   0.4750000  -0.1750000   1.1250000), wk =   0.0030000
        k(  737) = (  -0.3250000  -1.2750000   0.3250000), wk =   0.0015000
        k(  738) = (  -0.3750000  -1.2250000   0.2750000), wk =   0.0030000
        k(  739) = (  -0.4250000  -1.1750000   0.2250000), wk =   0.0030000
        k(  740) = (  -0.3250000  -1.1750000   0.3250000), wk =   0.0015000
        k(  741) = (  -0.3750000  -1.1250000   0.2750000), wk =   0.0030000
        k(  742) = (  -0.3250000  -1.0750000   0.3250000), wk =   0.0015000
        k(  743) = (  -0.3750000   0.3750000   0.3750000), wk =   0.0005000
        k(  744) = (  -0.4250000   0.4250000   0.3250000), wk =   0.0015000
        k(  745) = (  -0.4750000   0.4750000   0.2750000), wk =   0.0015000
        k(  746) = (   0.4750000  -0.4750000   1.2250000), wk =   0.0015000
        k(  747) = (   0.4250000  -0.4250000   1.1750000), wk =   0.0015000
        k(  748) = (   0.3750000  -0.3750000   1.1250000), wk =   0.0015000
        k(  749) = (  -0.3750000   0.4750000   0.3750000), wk =   0.0015000
        k(  750) = (  -0.4250000   0.5250000   0.3250000), wk =   0.0030000
        k(  751) = (   0.5250000  -0.4250000   1.2750000), wk =   0.0030000
        k(  752) = (   0.4750000  -0.3750000   1.2250000), wk =   0.0030000
        k(  753) = (   0.4250000  -0.3250000   1.1750000), wk =   0.0030000
        k(  754) = (  -0.3750000   0.5750000   0.3750000), wk =   0.0015000
        k(  755) = (   0.5750000  -0.3750000   1.3250000), wk =   0.0030000
        k(  756) = (   0.5250000  -0.3250000   1.2750000), wk =   0.0030000
        k(  757) = (   0.4750000  -0.2750000   1.2250000), wk =   0.0030000
        k(  758) = (  -0.3750000  -1.3250000   0.3750000), wk =   0.0015000
        k(  759) = (  -0.4250000  -1.2750000   0.3250000), wk =   0.0030000
        k(  760) = (  -0.3750000  -1.2250000   0.3750000), wk =   0.0015000
        k(  761) = (  -0.4250000   0.4250000   0.4250000), wk =   0.0005000
        k(  762) = (  -0.4750000   0.4750000   0.3750000), wk =   0.0015000
        k(  763) = (   0.4750000  -0.4750000   1.3250000), wk =   0.0015000
        k(  764) = (   0.4250000  -0.4250000   1.2750000), wk =   0.0015000
        k(  765) = (  -0.4250000   0.5250000   0.4250000), wk =   0.0015000
        k(  766) = (   0.5250000  -0.4250000   1.3750000), wk =   0.0030000
        k(  767) = (   0.4750000  -0.3750000   1.3250000), wk =   0.0030000
        k(  768) = (  -0.4250000  -1.3750000   0.4250000), wk =   0.0015000
        k(  769) = (  -0.4750000   0.4750000   0.4750000), wk =   0.0005000
        k(  770) = (   0.4750000  -0.4750000   1.4250000), wk =   0.0015000

                       cryst. coord.
        k(    1) = (   0.0250000   0.0250000   0.0250000), wk =   0.0005000
        k(    2) = (   0.0250000   0.0250000   0.0750000), wk =   0.0015000
        k(    3) = (   0.0250000   0.0250000   0.1250000), wk =   0.0015000
        k(    4) = (   0.0250000   0.0250000   0.1750000), wk =   0.0015000
        k(    5) = (   0.0250000   0.0250000   0.2250000), wk =   0.0015000
        k(    6) = (   0.0250000   0.0250000   0.2750000), wk =   0.0015000
        k(    7) = (   0.0250000   0.0250000   0.3250000), wk =   0.0015000
        k(    8) = (   0.0250000   0.0250000   0.3750000), wk =   0.0015000
        k(    9) = (   0.0250000   0.0250000   0.4250000), wk =   0.0015000
        k(   10) = (   0.0250000   0.0250000   0.4750000), wk =   0.0015000
        k(   11) = (   0.0250000   0.0250000  -0.4750000), wk =   0.0015000
        k(   12) = (   0.0250000   0.0250000  -0.4250000), wk =   0.0015000
        k(   13) = (   0.0250000   0.0250000  -0.3750000), wk =   0.0015000
        k(   14) = (   0.0250000   0.0250000  -0.3250000), wk =   0.0015000
        k(   15) = (   0.0250000   0.0250000  -0.2750000), wk =   0.0015000
        k(   16) = (   0.0250000   0.0250000  -0.2250000), wk =   0.0015000
        k(   17) = (   0.0250000   0.0250000  -0.1750000), wk =   0.0015000
        k(   18) = (   0.0250000   0.0250000  -0.1250000), wk =   0.0015000
        k(   19) = (   0.0250000   0.0250000  -0.0750000), wk =   0.0015000
        k(   20) = (   0.0250000   0.0250000  -0.0250000), wk =   0.0015000
        k(   21) = (   0.0250000   0.0750000   0.0750000), wk =   0.0015000
        k(   22) = (   0.0250000   0.0750000   0.1250000), wk =   0.0030000
        k(   23) = (   0.0250000   0.0750000   0.1750000), wk =   0.0030000
        k(   24) = (   0.0250000   0.0750000   0.2250000), wk =   0.0030000
        k(   25) = (   0.0250000   0.0750000   0.2750000), wk =   0.0030000
        k(   26) = (   0.0250000   0.0750000   0.3250000), wk =   0.0030000
        k(   27) = (   0.0250000   0.0750000   0.3750000), wk =   0.0030000
        k(   28) = (   0.0250000   0.0750000   0.4250000), wk =   0.0030000
        k(   29) = (   0.0250000   0.0750000   0.4750000), wk =   0.0030000
        k(   30) = (   0.0250000   0.0750000  -0.4750000), wk =   0.0030000
        k(   31) = (   0.0250000   0.0750000  -0.4250000), wk =   0.0030000
        k(   32) = (   0.0250000   0.0750000  -0.3750000), wk =   0.0030000
        k(   33) = (   0.0250000   0.0750000  -0.3250000), wk =   0.0030000
        k(   34) = (   0.0250000   0.0750000  -0.2750000), wk =   0.0030000
        k(   35) = (   0.0250000   0.0750000  -0.2250000), wk =   0.0030000
        k(   36) = (   0.0250000   0.0750000  -0.1750000), wk =   0.0030000
        k(   37) = (   0.0250000   0.0750000  -0.1250000), wk =   0.0030000
        k(   38) = (   0.0250000   0.0750000  -0.0750000), wk =   0.0030000
        k(   39) = (   0.0250000   0.0750000  -0.0250000), wk =   0.0030000
        k(   40) = (   0.0250000   0.1250000   0.1250000), wk =   0.0015000
        k(   41) = (   0.0250000   0.1250000   0.1750000), wk =   0.0030000
        k(   42) = (   0.0250000   0.1250000   0.2250000), wk =   0.0030000
        k(   43) = (   0.0250000   0.1250000   0.2750000), wk =   0.0030000
        k(   44) = (   0.0250000   0.1250000   0.3250000), wk =   0.0030000
        k(   45) = (   0.0250000   0.1250000   0.3750000), wk =   0.0030000
        k(   46) = (   0.0250000   0.1250000   0.4250000), wk =   0.0030000
        k(   47) = (   0.0250000   0.1250000   0.4750000), wk =   0.0030000
        k(   48) = (   0.0250000   0.1250000  -0.4750000), wk =   0.0030000
        k(   49) = (   0.0250000   0.1250000  -0.4250000), wk =   0.0030000
        k(   50) = (   0.0250000   0.1250000  -0.3750000), wk =   0.0030000
        k(   51) = (   0.0250000   0.1250000  -0.3250000), wk =   0.0030000
        k(   52) = (   0.0250000   0.1250000  -0.2750000), wk =   0.0030000
        k(   53) = (   0.0250000   0.1250000  -0.2250000), wk =   0.0030000
        k(   54) = (   0.0250000   0.1250000  -0.1750000), wk =   0.0030000
        k(   55) = (   0.0250000   0.1250000  -0.1250000), wk =   0.0030000
        k(   56) = (   0.0250000   0.1250000  -0.0750000), wk =   0.0030000
        k(   57) = (   0.0250000   0.1250000  -0.0250000), wk =   0.0030000
        k(   58) = (   0.0250000   0.1750000   0.1750000), wk =   0.0015000
        k(   59) = (   0.0250000   0.1750000   0.2250000), wk =   0.0030000
        k(   60) = (   0.0250000   0.1750000   0.2750000), wk =   0.0030000
        k(   61) = (   0.0250000   0.1750000   0.3250000), wk =   0.0030000
        k(   62) = (   0.0250000   0.1750000   0.3750000), wk =   0.0030000
        k(   63) = (   0.0250000   0.1750000   0.4250000), wk =   0.0030000
        k(   64) = (   0.0250000   0.1750000   0.4750000), wk =   0.0030000
        k(   65) = (   0.0250000   0.1750000  -0.4750000), wk =   0.0030000
        k(   66) = (   0.0250000   0.1750000  -0.4250000), wk =   0.0030000
        k(   67) = (   0.0250000   0.1750000  -0.3750000), wk =   0.0030000
        k(   68) = (   0.0250000   0.1750000  -0.3250000), wk =   0.0030000
        k(   69) = (   0.0250000   0.1750000  -0.2750000), wk =   0.0030000
        k(   70) = (   0.0250000   0.1750000  -0.2250000), wk =   0.0030000
        k(   71) = (   0.0250000   0.1750000  -0.1750000), wk =   0.0030000
        k(   72) = (   0.0250000   0.1750000  -0.1250000), wk =   0.0030000
        k(   73) = (   0.0250000   0.1750000  -0.0750000), wk =   0.0030000
        k(   74) = (   0.0250000   0.1750000  -0.0250000), wk =   0.0030000
        k(   75) = (   0.0250000   0.2250000   0.2250000), wk =   0.0015000
        k(   76) = (   0.0250000   0.2250000   0.2750000), wk =   0.0030000
        k(   77) = (   0.0250000   0.2250000   0.3250000), wk =   0.0030000
[...]

     occupation numbers 
     1.0000   1.0000   1.0000   1.0000   1.0000   1.0000   1.0000   1.0000
     1.0000   1.0000   1.0000   1.0000   1.0000   1.0000   0.0000   0.0000

          k =-0.3250-1.1750 0.3250 (  5182 PWs)   bands (ev):

   -26.6171 -26.6162 -26.6160 -26.6075 -26.6070  -6.2786  -6.1592  -6.1530
    -6.1169  -6.1054  -1.9296   2.1156   5.0416   6.7112  10.8289  13.8620

     occupation numbers 
     1.0000   1.0000   1.0000   1.0000   1.0000   1.0000   1.0000   1.0000
     1.0000   1.0000   1.0000   1.0000   1.0000   1.0000   0.0000   0.0000

          k =-0.3750-1.1250 0.2750 (  5169 PWs)   bands (ev):

   -26.6171 -26.6163 -26.6159 -26.6076 -26.6070  -6.2801  -6.1585  -6.1508
    -6.1176  -6.1059  -1.8546   2.1141   4.8486   6.5674  10.9655  13.9758

     occupation numbers 
     1.0000   1.0000   1.0000   1.0000   1.0000   1.0000   1.0000   1.0000
     1.0000   1.0000   1.0000   1.0000   1.0000   1.0000   0.0000   0.0000

          k =-0.3250-1.0750 0.3250 (  5174 PWs)   bands (ev):

   -26.6171 -26.6162 -26.6159 -26.6076 -26.6070  -6.2809  -6.1574  -6.1503
    -6.1181  -6.1061  -1.8211   2.1201   4.7018   6.6355  10.7582  14.2534

     occupation numbers 
     1.0000   1.0000   1.0000   1.0000   1.0000   1.0000   1.0000   1.0000
     1.0000   1.0000   1.0000   1.0000   1.0000   1.0000   0.0000   0.0000

          k =-0.3750 0.3750 0.3750 (  5180 PWs)   bands (ev):

   -26.6170 -26.6165 -26.6165 -26.6073 -26.6073  -6.2568  -6.1701  -6.1701
    -6.1073  -6.1073  -2.7485   2.7077   7.5883   7.5883   9.6494  13.2573

     occupation numbers 
     1.0000   1.0000   1.0000   1.0000   1.0000   1.0000   1.0000   1.0000
     1.0000   1.0000   1.0000   1.0000   1.0000   1.0000   0.0000   0.0000

          k =-0.4250 0.4250 0.3250 (  5181 PWs)   bands (ev):

   -26.6170 -26.6165 -26.6165 -26.6073 -26.6073  -6.2599  -6.1693  -6.1688
    -6.1080  -6.1065  -2.6432   2.5426   7.2125   7.6006   9.8830  13.2458

     occupation numbers 
     1.0000   1.0000   1.0000   1.0000   1.0000   1.0000   1.0000   1.0000
     1.0000   1.0000   1.0000   1.0000   1.0000   1.0000   0.0000   0.0000

          k =-0.4750 0.4750 0.2750 (  5172 PWs)   bands (ev):

   -26.6170 -26.6165 -26.6164 -26.6073 -26.6073  -6.2635  -6.1672  -6.1670
    -6.1085  -6.1069  -2.5048   2.4165   6.5871   7.5063  10.3883  13.1362

     occupation numbers 
     1.0000   1.0000   1.0000   1.0000   1.0000   1.0000   1.0000   1.0000
     1.0000   1.0000   1.0000   1.0000   1.0000   1.0000   0.0000   0.0000

          k = 0.4750-0.4750 1.2250 (  5170 PWs)   bands (ev):

   -26.6169 -26.6165 -26.6163 -26.6073 -26.6073  -6.2675  -6.1654  -6.1635
    -6.1086  -6.1085  -2.3410   2.3278   5.9412   7.3289  10.8450  13.1104

     occupation numbers 
     1.0000   1.0000   1.0000   1.0000   1.0000   1.0000   1.0000   1.0000
     1.0000   1.0000   1.0000   1.0000   1.0000   1.0000   0.0000   0.0000

          k = 0.4250-0.4250 1.1750 (  5175 PWs)   bands (ev):

   -26.6169 -26.6165 -26.6162 -26.6074 -26.6072  -6.2718  -6.1632  -6.1592
    -6.1112  -6.1083  -2.1623   2.2642   5.3715   7.1038  11.0252  13.4115

     occupation numbers 
     1.0000   1.0000   1.0000   1.0000   1.0000   1.0000   1.0000   1.0000
     1.0000   1.0000   1.0000   1.0000   1.0000   1.0000   0.0000   0.0000

          k = 0.3750-0.3750 1.1250 (  5176 PWs)   bands (ev):

   -26.6170 -26.6163 -26.6160 -26.6075 -26.6071  -6.2763  -6.1605  -6.1546
    -6.1144  -6.1075  -1.9827   2.2027   4.9412   6.8643  10.9420  13.9825

     occupation numbers 
     1.0000   1.0000   1.0000   1.0000   1.0000   1.0000   1.0000   1.0000
     1.0000   1.0000   1.0000   1.0000   1.0000   1.0000   0.0000   0.0000

          k =-0.3750 0.4750 0.3750 (  5166 PWs)   bands (ev):

   -26.6170 -26.6165 -26.6164 -26.6074 -26.6073  -6.2620  -6.1691  -6.1681
    -6.1081  -6.1058  -2.5655   2.3882   7.3300   7.4170   9.8690  13.0782

     occupation numbers 
     1.0000   1.0000   1.0000   1.0000   1.0000   1.0000   1.0000   1.0000
     1.0000   1.0000   1.0000   1.0000   1.0000   1.0000   0.0000   0.0000

          k =-0.4250 0.5250 0.3250 (  5166 PWs)   bands (ev):

   -26.6170 -26.6165 -26.6164 -26.6074 -26.6072  -6.2649  -6.1678  -6.1664
    -6.1087  -6.1058  -2.4558   2.2756   6.8286   7.3934  10.2395  12.9903

     occupation numbers 
     1.0000   1.0000   1.0000   1.0000   1.0000   1.0000   1.0000   1.0000
     1.0000   1.0000   1.0000   1.0000   1.0000   1.0000   0.0000   0.0000

          k = 0.5250-0.4250 1.2750 (  5174 PWs)   bands (ev):

   -26.6169 -26.6165 -26.6163 -26.6074 -26.6072  -6.2681  -6.1661  -6.1636
    -6.1095  -6.1065  -2.3205   2.2066   6.2144   7.2631  10.7326  12.8968

     occupation numbers 
     1.0000   1.0000   1.0000   1.0000   1.0000   1.0000   1.0000   1.0000
     1.0000   1.0000   1.0000   1.0000   1.0000   1.0000   0.0000   0.0000

          k = 0.4750-0.3750 1.2250 (  5172 PWs)   bands (ev):

   -26.6169 -26.6165 -26.6162 -26.6074 -26.6072  -6.2717  -6.1641  -6.1597
    -6.1112  -6.1071  -2.1676   2.1724   5.6331   7.0533  11.0833  12.9847

     occupation numbers 
     1.0000   1.0000   1.0000   1.0000   1.0000   1.0000   1.0000   1.0000
     1.0000   1.0000   1.0000   1.0000   1.0000   1.0000   0.0000   0.0000

          k = 0.4250-0.3250 1.1750 (  5176 PWs)   bands (ev):

   -26.6170 -26.6164 -26.6160 -26.6075 -26.6071  -6.2757  -6.1616  -6.1553
    -6.1141  -6.1069  -2.0078   2.1518   5.1577   6.8100  11.1198  13.4343

     occupation numbers 
     1.0000   1.0000   1.0000   1.0000   1.0000   1.0000   1.0000   1.0000
     1.0000   1.0000   1.0000   1.0000   1.0000   1.0000   0.0000   0.0000

          k =-0.3750 0.5750 0.3750 (  5172 PWs)   bands (ev):

   -26.6170 -26.6164 -26.6163 -26.6074 -26.6072  -6.2670  -6.1673  -6.1651
    -6.1095  -6.1052  -2.3773   2.1759   6.7315   7.2419  10.3713  12.9035

     occupation numbers 
     1.0000   1.0000   1.0000   1.0000   1.0000   1.0000   1.0000   1.0000
     1.0000   1.0000   1.0000   1.0000   1.0000   1.0000   0.0000   0.0000

          k = 0.5750-0.3750 1.3250 (  5169 PWs)   bands (ev):

   -26.6170 -26.6164 -26.6162 -26.6074 -26.6072  -6.2694  -6.1660  -6.1629
    -6.1104  -6.1055  -2.2742   2.1226   6.2894   7.1418  10.7182  12.8276

     occupation numbers 
     1.0000   1.0000   1.0000   1.0000   1.0000   1.0000   1.0000   1.0000
     1.0000   1.0000   1.0000   1.0000   1.0000   1.0000   0.0000   0.0000

          k = 0.5250-0.3250 1.2750 (  5175 PWs)   bands (ev):

   -26.6169 -26.6165 -26.6161 -26.6074 -26.6072  -6.2722  -6.1644  -6.1594
    -6.1117  -6.1061  -2.1527   2.1098   5.7858   6.9486  11.1696  12.7174

     occupation numbers 
     1.0000   1.0000   1.0000   1.0000   1.0000   1.0000   1.0000   1.0000
     1.0000   1.0000   1.0000   1.0000   1.0000   1.0000   0.0000   0.0000

          k = 0.4750-0.2750 1.2250 (  5177 PWs)   bands (ev):

   -26.6169 -26.6165 -26.6160 -26.6075 -26.6071  -6.2754  -6.1625  -6.1553
    -6.1139  -6.1064  -2.0204   2.1193   5.3372   6.6886  11.4842  12.8179

     occupation numbers 
     1.0000   1.0000   1.0000   1.0000   1.0000   1.0000   1.0000   1.0000
     1.0000   1.0000   1.0000   1.0000   1.0000   1.0000   0.0000   0.0000

          k =-0.3750-1.3250 0.3750 (  5167 PWs)   bands (ev):

   -26.6170 -26.6164 -26.6162 -26.6074 -26.6072  -6.2711  -6.1649  -6.1615
    -6.1112  -6.1054  -2.2058   2.0844   6.0605   7.0818  10.7850  12.9475

     occupation numbers 
     1.0000   1.0000   1.0000   1.0000   1.0000   1.0000   1.0000   1.0000
     1.0000   1.0000   1.0000   1.0000   1.0000   1.0000   0.0000   0.0000

          k =-0.4250-1.2750 0.3250 (  5176 PWs)   bands (ev):

   -26.6170 -26.6164 -26.6161 -26.6074 -26.6072  -6.2731  -6.1637  -6.1589
    -6.1123  -6.1059  -2.1196   2.0886   5.6941   6.9466  11.0374  12.9577

     occupation numbers 
     1.0000   1.0000   1.0000   1.0000   1.0000   1.0000   1.0000   1.0000
     1.0000   1.0000   1.0000   1.0000   1.0000   1.0000   0.0000   0.0000

          k =-0.3750-1.2250 0.3750 (  5167 PWs)   bands (ev):

   -26.6170 -26.6164 -26.6161 -26.6074 -26.6071  -6.2743  -6.1625  -6.1577
    -6.1130  -6.1063  -2.0705   2.1075   5.4340   6.9521  10.9429  13.3498

     occupation numbers 
     1.0000   1.0000   1.0000   1.0000   1.0000   1.0000   1.0000   1.0000
     1.0000   1.0000   1.0000   1.0000   1.0000   1.0000   0.0000   0.0000

          k =-0.4250 0.4250 0.4250 (  5174 PWs)   bands (ev):

   -26.6170 -26.6164 -26.6164 -26.6073 -26.6073  -6.2632  -6.1689  -6.1689
    -6.1064  -6.1064  -2.5171   2.2449   7.5107   7.5107   9.5699  13.2284

     occupation numbers 
     1.0000   1.0000   1.0000   1.0000   1.0000   1.0000   1.0000   1.0000
     1.0000   1.0000   1.0000   1.0000   1.0000   1.0000   0.0000   0.0000

          k =-0.4750 0.4750 0.3750 (  5168 PWs)   bands (ev):

   -26.6170 -26.6164 -26.6164 -26.6073 -26.6073  -6.2652  -6.1680  -6.1680
    -6.1068  -6.1062  -2.4379   2.1462   7.1782   7.4968   9.8211  13.2596

     occupation numbers 
     1.0000   1.0000   1.0000   1.0000   1.0000   1.0000   1.0000   1.0000
     1.0000   1.0000   1.0000   1.0000   1.0000   1.0000   0.0000   0.0000

          k = 0.4750-0.4750 1.3250 (  5168 PWs)   bands (ev):

   -26.6170 -26.6164 -26.6164 -26.6073 -26.6073  -6.2677  -6.1667  -6.1657
    -6.1073  -6.1070  -2.3329   2.0965   6.5864   7.3789  10.3453  13.0314

     occupation numbers 
     1.0000   1.0000   1.0000   1.0000   1.0000   1.0000   1.0000   1.0000
     1.0000   1.0000   1.0000   1.0000   1.0000   1.0000   0.0000   0.0000

          k = 0.4250-0.4250 1.2750 (  5168 PWs)   bands (ev):

   -26.6169 -26.6164 -26.6162 -26.6074 -26.6072  -6.2706  -6.1650  -6.1621
    -6.1097  -6.1068  -2.2079   2.0899   5.9714   7.1853  10.7980  13.0124

     occupation numbers 
     1.0000   1.0000   1.0000   1.0000   1.0000   1.0000   1.0000   1.0000
     1.0000   1.0000   1.0000   1.0000   1.0000   1.0000   0.0000   0.0000

          k =-0.4250 0.5250 0.4250 (  5167 PWs)   bands (ev):

   -26.6170 -26.6164 -26.6164 -26.6073 -26.6073  -6.2663  -6.1681  -6.1674
    -6.1070  -6.1057  -2.3916   2.0613   7.2386   7.4028   9.8139  13.0924

     occupation numbers 
     1.0000   1.0000   1.0000   1.0000   1.0000   1.0000   1.0000   1.0000
     1.0000   1.0000   1.0000   1.0000   1.0000   1.0000   0.0000   0.0000

          k = 0.5250-0.4250 1.3750 (  5174 PWs)   bands (ev):

   -26.6170 -26.6164 -26.6163 -26.6073 -26.6073  -6.2680  -6.1672  -6.1659
    -6.1077  -6.1059  -2.3203   2.0279   6.7965   7.3392  10.2014  12.9810

     occupation numbers 
     1.0000   1.0000   1.0000   1.0000   1.0000   1.0000   1.0000   1.0000
     1.0000   1.0000   1.0000   1.0000   1.0000   1.0000   0.0000   0.0000

          k = 0.4750-0.3750 1.3250 (  5177 PWs)   bands (ev):

   -26.6169 -26.6165 -26.6162 -26.6074 -26.6072  -6.2702  -6.1658  -6.1630
    -6.1093  -6.1062  -2.2281   2.0424   6.2307   7.1763  10.7074  12.8521

     occupation numbers 
     1.0000   1.0000   1.0000   1.0000   1.0000   1.0000   1.0000   1.0000
     1.0000   1.0000   1.0000   1.0000   1.0000   1.0000   0.0000   0.0000

          k =-0.4250-1.3750 0.4250 (  5173 PWs)   bands (ev):

   -26.6170 -26.6164 -26.6163 -26.6073 -26.6072  -6.2688  -6.1668  -6.1651
    -6.1082  -6.1058  -2.2847   2.0104   6.6355   7.2894  10.3393  12.9529

     occupation numbers 
     1.0000   1.0000   1.0000   1.0000   1.0000   1.0000   1.0000   1.0000
     1.0000   1.0000   1.0000   1.0000   1.0000   1.0000   0.0000   0.0000

          k =-0.4750 0.4750 0.4750 (  5168 PWs)   bands (ev):

   -26.6170 -26.6164 -26.6164 -26.6073 -26.6073  -6.2666  -6.1682  -6.1682
    -6.1059  -6.1059  -2.3797   1.9912   7.4713   7.4713   9.5293  13.2075

     occupation numbers 
     1.0000   1.0000   1.0000   1.0000   1.0000   1.0000   1.0000   1.0000
     1.0000   1.0000   1.0000   1.0000   1.0000   1.0000   0.0000   0.0000

          k = 0.4750-0.4750 1.4250 (  5169 PWs)   bands (ev):

   -26.6170 -26.6164 -26.6164 -26.6073 -26.6073  -6.2674  -6.1678  -6.1674
    -6.1063  -6.1060  -2.3434   1.9748   7.1873   7.4299   9.7977  13.1255

     occupation numbers 
     1.0000   1.0000   1.0000   1.0000   1.0000   1.0000   1.0000   1.0000
     1.0000   1.0000   1.0000   1.0000   1.0000   1.0000   0.0000   0.0000

     highest occupied, lowest unoccupied level (ev):     8.5930    9.2392

!    total energy              =    -364.61522080 Ry
     estimated scf accuracy    <       0.00000010 Ry

     The total energy is the sum of the following terms:
     one-electron contribution =    -192.83591305 Ry
     hartree contribution      =     114.75864306 Ry
     xc contribution           =     -88.46355001 Ry
     ewald contribution        =    -198.07440081 Ry

     convergence has been achieved in   9 iterations

     Forces acting on atoms (cartesian axes, Ry/au):

     atom    1 type  1   force =     0.00000000    0.00000000    0.00000000
     atom    2 type  2   force =     0.00000000    0.00000000    0.00000000
     The non-local contrib.  to forces
     atom    1 type  1   force =     0.00000000    0.00000000    0.00000000
     atom    2 type  2   force =     0.00000000    0.00000000    0.00000000
     The ionic contribution  to forces
     atom    1 type  1   force =     0.00000000    0.00000000   -0.00000000
     atom    2 type  2   force =     0.00000000    0.00000000   -0.00000000
     The local contribution  to forces
     atom    1 type  1   force =     0.00000000   -0.00000000    0.00000000
     atom    2 type  2   force =     0.00000000    0.00000000    0.00000000
     The core correction contribution to forces
     atom    1 type  1   force =    -0.00000000    0.00000000    0.00000000
     atom    2 type  2   force =     0.00000000    0.00000000   -0.00000000
     The Hubbard contrib.    to forces
     atom    1 type  1   force =     0.00000000    0.00000000    0.00000000
     atom    2 type  2   force =     0.00000000    0.00000000    0.00000000
     The SCF correction term to forces
     atom    1 type  1   force =    -0.00000000    0.00000000   -0.00000000
     atom    2 type  2   force =     0.00000000    0.00000000    0.00000000

     Total force =     0.000000     Total SCF correction =     0.000000


     Computing stress (Cartesian axis) and pressure

          total   stress  (Ry/bohr**3)                   (kbar)     P=        0.24
   0.00000163   0.00000000   0.00000000            0.24        0.00        0.00
   0.00000000   0.00000163  -0.00000000            0.00        0.24       -0.00
   0.00000000  -0.00000000   0.00000163            0.00       -0.00        0.24

     kinetic stress (kbar)  88911.04      0.00      0.00
                                0.00  88911.04      0.00
                                0.00      0.00  88911.04

     local   stress (kbar)   -763.30     -0.00     -0.00
                               -0.00   -763.30     -0.00
                               -0.00     -0.00   -763.30

     nonloc. stress (kbar) -64937.20     -0.00     -0.00
                               -0.00 -64937.20      0.00
                               -0.00      0.00 -64937.20

     hartree stress (kbar)  18379.21     -0.00      0.00
                               -0.00  18379.21     -0.00
                                0.00     -0.00  18379.21

     exc-cor stress (kbar)  13982.14      0.00      0.00
                                0.00  13982.14     -0.00
                                0.00     -0.00  13982.14

     corecor stress (kbar) -23848.98     -0.00     -0.00
                               -0.00 -23848.98      0.00
                               -0.00      0.00 -23848.98

     ewald   stress (kbar) -31722.67     -0.00      0.00
                               -0.00 -31722.67      0.00
                                0.00      0.00 -31722.67

     hubbard stress (kbar)      0.00      0.00      0.00
                                0.00      0.00      0.00
                                0.00      0.00      0.00

     DFT-D   stress (kbar)      0.00      0.00      0.00
                                0.00      0.00      0.00
                                0.00      0.00      0.00

     XDM     stress (kbar)      0.00      0.00      0.00
                                0.00      0.00      0.00
                                0.00      0.00      0.00

     dft-nl  stress (kbar)      0.00      0.00      0.00
                                0.00      0.00      0.00
                                0.00      0.00      0.00

     TS-vdW  stress (kbar)      0.00      0.00      0.00
                                0.00      0.00      0.00
                                0.00      0.00      0.00

     MDB     stress (kbar)      0.00      0.00      0.00
                                0.00      0.00      0.00
                                0.00      0.00      0.00

     3D-RISM stress (kbar)      0.00      0.00      0.00
                                0.00      0.00      0.00
                                0.00      0.00      0.00


     Writing all to output data dir /home/sachs/software/q-e/tempdir/gaasPBEsol.save/ :
     XML data file, charge density, pseudopotentials, collected wavefunctions

     init_run     :      0.75s CPU      0.90s WALL (       1 calls)
     electrons    :     12.34s CPU     13.34s WALL (       1 calls)
     forces       :      0.10s CPU      0.13s WALL (       1 calls)
     stress       :      0.36s CPU      0.39s WALL (       1 calls)

     Called by init_run:
     wfcinit      :      0.30s CPU      0.31s WALL (       1 calls)
     wfcinit:atom :      0.00s CPU      0.00s WALL (      49 calls)
     wfcinit:wfcr :      0.27s CPU      0.28s WALL (      49 calls)
     potinit      :      0.13s CPU      0.14s WALL (       1 calls)
     hinit0       :      0.27s CPU      0.35s WALL (       1 calls)

     Called by electrons:
     c_bands      :     11.19s CPU     11.88s WALL (      10 calls)
     sum_band     :      1.00s CPU      1.05s WALL (      10 calls)
     v_of_rho     :      0.06s CPU      0.08s WALL (      10 calls)
     v_h          :      0.00s CPU      0.00s WALL (      10 calls)
     v_xc         :      0.06s CPU      0.11s WALL (      12 calls)
     mix_rho      :      0.01s CPU      0.01s WALL (      10 calls)

     Called by c_bands:
     init_us_2    :      0.10s CPU      0.11s WALL (    1127 calls)
     ccgdiagg     :      8.52s CPU      9.11s WALL (     490 calls)
     wfcrot       :      2.28s CPU      2.35s WALL (     441 calls)

     Called by sum_band:
     sum_band:wei :      0.00s CPU      0.00s WALL (      10 calls)
     sum_band:loo :      0.97s CPU      1.01s WALL (      10 calls)
     sum_band:buf :      0.01s CPU      0.01s WALL (     490 calls)
     sum_band:ini :      0.05s CPU      0.05s WALL (     490 calls)

     Called by *cgdiagg:
     h_psi        :      8.49s CPU      8.99s WALL (   23308 calls)

     Called by h_psi:
     h_psi:calbec :      0.89s CPU      0.95s WALL (   23308 calls)
     vloc_psi     :      6.87s CPU      7.28s WALL (   23308 calls)
                                        0.00s GPU  (   23308 calls)
     add_vuspsi   :      0.58s CPU      0.62s WALL (   23308 calls)
     hs_1psi      :      6.60s CPU      7.05s WALL (   22867 calls)
     s_1psi       :      0.77s CPU      0.82s WALL (   22867 calls)

     General routines
     calbec       :      1.79s CPU      1.92s WALL (   47008 calls)
     fft          :      0.29s CPU      0.39s WALL (     143 calls)
     ffts         :      0.12s CPU      0.12s WALL (      20 calls)
     fftw         :      7.25s CPU      7.65s WALL (   67882 calls)
     interpolate  :      0.12s CPU      0.12s WALL (      10 calls)

     Parallel routines

     PWSCF        :     17.99s CPU     29.70s WALL


   This run was terminated on:  17:49:32  19Feb2026            

=------------------------------------------------------------------------------=
   JOB DONE.
=------------------------------------------------------------------------------=
