
     Program PHONON v.7.5 starts on  9Mar2026 at  2: 9:10 

     This program is part of the open-source Quantum ESPRESSO suite
     for quantum simulation of materials; please cite
         "P. Giannozzi et al., J. Phys.:Condens. Matter 21 395502 (2009);
         "P. Giannozzi et al., J. Phys.:Condens. Matter 29 465901 (2017);
         "P. Giannozzi et al., J. Chem. Phys. 152 154105 (2020);
          URL http://www.quantum-espresso.org", 
     in publications or presentations arising from this work. More details at
     http://www.quantum-espresso.org/quote

     Parallel version (MPI), running on     4 processors

     MPI processes distributed on     1 nodes
     10351 MiB available memory on the printing compute node when the environment starts

     Waiting for input...
     Reading input from standard input
      Title line not specified: using 'default'.

     Reading xml data from directory:

     /home/nico-sachs/source/q-e/tempdir/gaasPBE.save/

     R & G space division:  proc/nbgrp/npool/nimage =       4
     Subspace diagonalization in iterative solution of the eigenvalue problem:
     a serial algorithm will be used


     IMPORTANT: XC functional enforced from input :
     Exchange-correlation= PBE
                           (   1   4   3   4   0   0   0)
     Any further DFT definition will be discarded
     Please, verify this is what you really want


     Parallelization info
     --------------------
     sticks:   dense  smooth     PW     G-vecs:    dense   smooth      PW
     Min         601     406    118                19667    10784    1718
     Max         602     407    119                19671    10787    1721
     Sum        2407    1627    475                78679    43143    6879

     Using Slab Decomposition

     Reading collected, re-writing distributed wavefunctions in /home/nico-sachs/source/q-e/tempdir/

     Number and degeneracy of irreps per q-point
       N         xq(1)         xq(2)         xq(3)   N irreps
       1   0.000000000   0.000000000   0.000000000       2
        3   3

     Calculation of q =    0.0000000   0.0000000   0.0000000

     default                                                                    

     bravais-lattice index     =            2
     lattice parameter (alat)  =      10.8340  a.u.
     unit-cell volume          =     317.9151 (a.u.)^3
     number of atoms/cell      =            2
     number of atomic types    =            2
     kinetic-energy cut-off    =     100.0000  Ry
     charge density cut-off    =     600.0000  Ry
     convergence threshold     =      1.0E-14
     beta                      =       0.7000
     number of iterations used =            4
     Exchange-correlation= PBE
                           (   1   4   3   4   0   0   0)


     celldm(1)=   10.83404  celldm(2)=    0.00000  celldm(3)=    0.00000
     celldm(4)=    0.00000  celldm(5)=    0.00000  celldm(6)=    0.00000

     crystal axes: (cart. coord. in units of alat)
               a(1) = ( -0.5000  0.0000  0.5000 )  
               a(2) = (  0.0000  0.5000  0.5000 )  
               a(3) = ( -0.5000  0.5000  0.0000 )  

     reciprocal axes: (cart. coord. in units 2 pi/alat)
               b(1) = ( -1.0000 -1.0000  1.0000 )  
               b(2) = (  1.0000  1.0000  1.0000 )  
               b(3) = ( -1.0000  1.0000 -1.0000 )  


     Atoms inside the unit cell: 

     Cartesian axes

     site n.  atom      mass           positions (alat units)
        1  Ga     69.7230   tau(    1) = (    0.00000    0.00000    0.00000  )
        2  As     74.9210   tau(    2) = (   -0.25000    0.25000    0.25000  )

     Computing dynamical matrix for 
                    q = (   0.0000000   0.0000000   0.0000000 )

     25 Sym.Ops. (with q -> -q+G )


     G cutoff = 1783.9071  (  19671 G-vectors)     FFT grid: ( 60, 60, 60)
     G cutoff = 1189.2714  (  10787 G-vectors)  smooth grid: ( 50, 50, 50)
     number of k points=   770

     PseudoPot. # 1 for Ga read from file:
     /home/nico-sachs/source/q-e/Pseudofolder/nc-sr-04_pbe_standard_upf/Ga.upf
     MD5 check sum: 2bb81bf6f0a8d9832cf3329850435ecf
     Pseudo is Norm-conserving + core correction, Zval = 13.0
     Generated using ONCVPSP code by D. R. Hamann
     Using radial grid of 1902 points,  6 beta functions with: 
                l(1) =   0
                l(2) =   0
                l(3) =   1
                l(4) =   1
                l(5) =   2
                l(6) =   2

     PseudoPot. # 2 for As read from file:
     /home/nico-sachs/source/q-e/Pseudofolder/nc-sr-04_pbe_standard_upf/As.upf
     MD5 check sum: bfe1a874457ce592347346129958e7cf
     Pseudo is Norm-conserving + core correction, Zval = 15.0
     Generated using ONCVPSP code by D. R. Hamann
     Using radial grid of 1358 points,  6 beta functions with: 
                l(1) =   0
                l(2) =   0
                l(3) =   1
                l(4) =   1
                l(5) =   2
                l(6) =   2

     Mode symmetry, T_d (-43m)  point group:


     Electric field:
     Dielectric constant
     Born effective charges as d Force / d E


     Atomic displacements:
     There are    2 irreducible representations

     Representation     1      3 modes -  To be done

     Representation     2      3 modes -  To be done



     Alpha used in Ewald sum =   2.8000
     PHONON       :     16.09s CPU     16.73s WALL


     Electric Fields Calculation

      iter #   1 total cpu time :  1634.7 secs   av.it.:   8.2
      thresh= 1.000E-02 alpha_mix =  0.700 |ddv_scf|^2 =  3.014E-08

      iter #   2 total cpu time :  2271.6 secs   av.it.:  16.9
      thresh= 1.736E-05 alpha_mix =  0.700 |ddv_scf|^2 =  2.808E-09

      iter #   3 total cpu time :  2901.9 secs   av.it.:  16.7
      thresh= 5.299E-06 alpha_mix =  0.700 |ddv_scf|^2 =  2.770E-10

      iter #   4 total cpu time :  3537.6 secs   av.it.:  16.8
      thresh= 1.664E-06 alpha_mix =  0.700 |ddv_scf|^2 =  2.527E-11

      iter #   5 total cpu time :  4153.8 secs   av.it.:  16.1
      thresh= 5.027E-07 alpha_mix =  0.700 |ddv_scf|^2 =  6.389E-14

      iter #   6 total cpu time :  4808.0 secs   av.it.:  17.3
      thresh= 2.528E-08 alpha_mix =  0.700 |ddv_scf|^2 =  1.195E-14

      iter #   7 total cpu time :  5451.1 secs   av.it.:  17.0
      thresh= 1.093E-08 alpha_mix =  0.700 |ddv_scf|^2 =  5.668E-16

     End of electric fields calculation

          Dielectric constant in cartesian axis 

          (      15.227008276      -0.000000000      -0.000000000 )
          (       0.000000000      15.227008276       0.000000000 )
          (       0.000000000       0.000000000      15.227008276 )

          Effective charges (d Force / dE) in cartesian axis without acoustic sum rule applied (asr)

           atom    1  Ga    Mean Z*:        2.19273
      Ex  (        2.19273        0.00000       -0.00000 )
      Ey  (       -0.00000        2.19273        0.00000 )
      Ez  (       -0.00000        0.00000        2.19273 )
           atom    2  As    Mean Z*:       -2.19843
      Ex  (       -2.19843        0.00000       -0.00000 )
      Ey  (        0.00000       -2.19843        0.00000 )
      Ez  (        0.00000        0.00000       -2.19843 )

          Effective charges Sum: Mean:       -0.00570
             -0.00570        0.00000       -0.00000
              0.00000       -0.00570        0.00000
             -0.00000        0.00000       -0.00570

          Effective charges (d Force / dE) in cartesian axis with asr applied: 
           atom    1  Ga    Mean Z*:        2.19558
      E*x (        2.19558       -0.00000        0.00000 )
      E*y (       -0.00000        2.19558        0.00000 )
      E*z (       -0.00000        0.00000        2.19558 )
           atom    2  As    Mean Z*:       -2.19558
      E*x (       -2.19558        0.00000        0.00000 )
      E*y (        0.00000       -2.19558        0.00000 )
      E*z (        0.00000       -0.00000       -2.19558 )


     Representation #   1 modes #   1   2   3

     Self-consistent Calculation

      iter #   1 total cpu time :  6046.9 secs   av.it.:  10.3
      thresh= 1.000E-02 alpha_mix =  0.700 |ddv_scf|^2 =  1.740E-06

      iter #   2 total cpu time :  6693.3 secs   av.it.:  17.2
      thresh= 1.319E-04 alpha_mix =  0.700 |ddv_scf|^2 =  4.326E-07

      iter #   3 total cpu time :  7323.3 secs   av.it.:  16.8
      thresh= 6.577E-05 alpha_mix =  0.700 |ddv_scf|^2 =  4.810E-10

      iter #   4 total cpu time :  7959.7 secs   av.it.:  17.0
      thresh= 2.193E-06 alpha_mix =  0.700 |ddv_scf|^2 =  5.157E-11

      iter #   5 total cpu time :  8588.1 secs   av.it.:  16.7
      thresh= 7.181E-07 alpha_mix =  0.700 |ddv_scf|^2 =  1.586E-12

      iter #   6 total cpu time :  9214.7 secs   av.it.:  16.6
      thresh= 1.260E-07 alpha_mix =  0.700 |ddv_scf|^2 =  3.518E-14

      iter #   7 total cpu time :  9847.1 secs   av.it.:  16.9
      thresh= 1.876E-08 alpha_mix =  0.700 |ddv_scf|^2 =  1.117E-15

     End of self-consistent calculation

     Convergence has been achieved 


     Representation #   2 modes #   4   5   6

     Self-consistent Calculation

      iter #   1 total cpu time : 10281.2 secs   av.it.:  10.0
      thresh= 1.000E-02 alpha_mix =  0.700 |ddv_scf|^2 =  1.220E-06

      iter #   2 total cpu time : 10927.4 secs   av.it.:  17.2
      thresh= 1.105E-04 alpha_mix =  0.700 |ddv_scf|^2 =  3.187E-07

      iter #   3 total cpu time : 11559.3 secs   av.it.:  16.8
      thresh= 5.645E-05 alpha_mix =  0.700 |ddv_scf|^2 =  3.382E-10

      iter #   4 total cpu time : 12217.2 secs   av.it.:  17.5
      thresh= 1.839E-06 alpha_mix =  0.700 |ddv_scf|^2 =  2.375E-11

      iter #   5 total cpu time : 12852.8 secs   av.it.:  17.0
      thresh= 4.874E-07 alpha_mix =  0.700 |ddv_scf|^2 =  2.249E-12

      iter #   6 total cpu time : 13503.8 secs   av.it.:  17.3
      thresh= 1.500E-07 alpha_mix =  0.700 |ddv_scf|^2 =  2.007E-14

      iter #   7 total cpu time : 14114.7 secs   av.it.:  16.1
      thresh= 1.417E-08 alpha_mix =  0.700 |ddv_scf|^2 =  1.344E-15

     End of self-consistent calculation

     Convergence has been achieved 

     Number of q in the star =    1
     List of q in the star:
          1   0.000000000   0.000000000   0.000000000

          Dielectric constant in cartesian axis 

          (      15.227008276      -0.000000000      -0.000000000 )
          (       0.000000000      15.227008276       0.000000000 )
          (       0.000000000       0.000000000      15.227008276 )

          Effective charges (d Force / dE) in cartesian axis without acoustic sum rule applied (asr)

           atom    1  Ga    Mean Z*:        2.19273
      Ex  (        2.19273        0.00000       -0.00000 )
      Ey  (       -0.00000        2.19273        0.00000 )
      Ez  (       -0.00000        0.00000        2.19273 )
           atom    2  As    Mean Z*:       -2.19843
      Ex  (       -2.19843        0.00000       -0.00000 )
      Ey  (        0.00000       -2.19843        0.00000 )
      Ez  (        0.00000        0.00000       -2.19843 )

          Effective charges Sum: Mean:       -0.00570
             -0.00570        0.00000       -0.00000
              0.00000       -0.00570        0.00000
             -0.00000        0.00000       -0.00570

          Effective charges (d Force / dE) in cartesian axis with asr applied: 
           atom    1  Ga    Mean Z*:        2.19558
      E*x (        2.19558       -0.00000        0.00000 )
      E*y (       -0.00000        2.19558        0.00000 )
      E*z (       -0.00000        0.00000        2.19558 )
           atom    2  As    Mean Z*:       -2.19558
      E*x (       -2.19558        0.00000        0.00000 )
      E*y (        0.00000       -2.19558        0.00000 )
      E*z (        0.00000       -0.00000       -2.19558 )

     Diagonalizing the dynamical matrix

     q = (    0.000000000   0.000000000   0.000000000 ) 

 **************************************************************************
     freq (    1) =      -3.425250 [THz] =    -114.254052 [cm-1]
     freq (    2) =      -3.425250 [THz] =    -114.254052 [cm-1]
     freq (    3) =      -3.425250 [THz] =    -114.254052 [cm-1]
     freq (    4) =       6.996019 [THz] =     233.362073 [cm-1]
     freq (    5) =       6.996019 [THz] =     233.362073 [cm-1]
     freq (    6) =       6.996019 [THz] =     233.362073 [cm-1]
 **************************************************************************

     Mode symmetry, T_d (-43m)  point group:

     freq (   1-   3) =       -114.3  [cm-1]   --> T_2  G_15 P_4   I+R
     freq (   4-   6) =        233.4  [cm-1]   --> T_2  G_15 P_4   I+R

     PHONON       :      3h46m CPU      3h55m WALL

     INITIALIZATION: 
     phq_setup    :      0.18s CPU      0.20s WALL (       1 calls)
     phq_init     :     14.60s CPU     14.89s WALL (       1 calls)

     phq_init     :     14.60s CPU     14.89s WALL (       1 calls)
     set_drhoc    :      0.00s CPU      0.00s WALL (       3 calls)
     init_vloc    :      0.03s CPU      0.03s WALL (       1 calls)
     init_us_1    :      0.00s CPU      0.00s WALL (       1 calls)
     init_us_2    :     14.30s CPU     16.49s WALL (   23870 calls)

     DIELECTRIC CONSTANT AND EFFECTIVE CHARGES:
     solve_e      :   5220.83s CPU   5434.38s WALL (       1 calls)
     dielec       :      0.22s CPU      0.57s WALL (       1 calls)
     zstar_eu     :    153.02s CPU    161.03s WALL (       1 calls)

     DYNAMICAL MATRIX:
     dynmat0      :      9.44s CPU      9.59s WALL (       1 calls)
     dynmat_us    :      9.40s CPU      9.51s WALL (       1 calls)
     d2ionq       :      0.01s CPU      0.01s WALL (       1 calls)
     dynmatcc     :      0.04s CPU      0.04s WALL (       1 calls)
     phqscf       :   8176.05s CPU   8517.54s WALL (       1 calls)
     dynmatrix    :      0.00s CPU      0.00s WALL (       1 calls)

     phqscf       :   8176.05s CPU   8517.54s WALL (       1 calls)
     solve_linter :   8145.88s CPU   8486.61s WALL (       2 calls)
     dfpt_kernel  :  12042.29s CPU  12545.48s WALL (       3 calls)
     sth_kernel   :  12031.86s CPU  12534.45s WALL (      21 calls)
     h_prec       :      2.64s CPU      2.90s WALL (   18480 calls)
     apply_dpot_b :    394.19s CPU    420.39s WALL (   41580 calls)
     ortho        :     59.43s CPU     61.28s WALL (   50820 calls)
     cgsolve      :  12295.34s CPU  12774.41s WALL (   50820 calls)
     incdrhoscf   :    478.02s CPU    506.96s WALL (   48510 calls)
                                        0.00s GPU  (   48510 calls)
     dv_of_drho   :      1.05s CPU      1.19s WALL (      63 calls)
     mix_pot      :      0.24s CPU      0.42s WALL (      21 calls)
     drhodv       :     30.17s CPU     30.87s WALL (       2 calls)
     psymdvscf    :      8.92s CPU      9.13s WALL (      21 calls)
     com_dvloc    :     85.20s CPU     90.03s WALL (    9252 calls)
                                        0.00s GPU  (    9252 calls)
     addcore      :      5.97s CPU      6.42s WALL (    4668 calls)
                                        0.00s GPU  (    4668 calls)

     dvqpsi_us    :    225.67s CPU    236.33s WALL (    9240 calls)
                                        0.00s GPU  (    9240 calls)
     dvqpsi_us_on :     41.65s CPU     41.89s WALL (    9240 calls)

     add_vuspsi   :   1259.54s CPU   1264.31s WALL ( 1070184 calls)


      General routines
     calbec       :   1307.81s CPU   1343.73s WALL ( 1098674 calls)
     fft          :     35.05s CPU     37.28s WALL (   47139 calls)
     ffts         :      4.20s CPU      4.72s WALL (    9379 calls)
     fftw         :   8010.46s CPU   8444.94s WALL (27242260 calls)
     davcio       :     17.31s CPU     29.70s WALL (  196500 calls)
     write_rec    :      0.00s CPU      0.08s WALL (      23 calls)

      Additional routines
     ch_psi       :  11853.32s CPU  12328.60s WALL ( 1070184 calls)
     last         :   1116.91s CPU   1124.49s WALL ( 1070184 calls)
     Hesh         :     68.39s CPU     69.08s WALL ( 1070184 calls)
     ch_psi_all_k :   1043.43s CPU   1050.64s WALL ( 1070184 calls)
                                        0.00s GPU  ( 1070184 calls)
     h_psi_bgrp   :  10624.82s CPU  11091.31s WALL ( 1070184 calls)
     h_psi        :  10622.14s CPU  11088.81s WALL ( 1070184 calls)
     h_psi:pot    :  10586.71s CPU  11052.72s WALL ( 1070184 calls)
     h_psi:calbec :   1267.18s CPU   1302.11s WALL ( 1070184 calls)
     s_psi_bgrp   :     59.41s CPU     59.74s WALL ( 2191188 calls)


     PHONON       :      3h46m CPU      3h55m WALL


   This run was terminated on:   6: 4:40   9Mar2026            

=------------------------------------------------------------------------------=
   JOB DONE.
=------------------------------------------------------------------------------=
