
     Program PWSCF v.7.5 starts on 27Jan2026 at 15:37:36 

     This program is part of the open-source Quantum ESPRESSO suite
     for quantum simulation of materials; please cite
         "P. Giannozzi et al., J. Phys.:Condens. Matter 21 395502 (2009);
         "P. Giannozzi et al., J. Phys.:Condens. Matter 29 465901 (2017);
         "P. Giannozzi et al., J. Chem. Phys. 152 154105 (2020);
          URL http://www.quantum-espresso.org", 
     in publications or presentations arising from this work. More details at
     http://www.quantum-espresso.org/quote

     Parallel version (MPI), running on     4 processors

     MPI processes distributed on     1 nodes
     23151 MiB available memory on the printing compute node when the environment starts

     Waiting for input...
     Reading input from standard input

     Current dimensions of program PWSCF are:
     Max number of different atomic species (ntypx) = 10
     Max number of k-points (npk) =  40000
     Max angular momentum in pseudopotentials (lmaxx) =  4
     file Ga.pbe-dn-kjpaw_psl.1.0.0.UPF: wavefunction(s)  4S renormalized

     R & G space division:  proc/nbgrp/npool/nimage =       4
     Subspace diagonalization in iterative solution of the eigenvalue problem:
     a serial algorithm will be used


     Parallelization info
     --------------------
     sticks:   dense  smooth     PW     G-vecs:    dense   smooth      PW
     Min         250      75     22                10432     1697     308
     Max         251      76     23                10439     1700     311
     Sum        1003     301     91                41745     6791    1237

     Using Slab Decomposition



     bravais-lattice index     =            4
     lattice parameter (alat)  =       6.0263  a.u.
     unit-cell volume          =     308.1662 (a.u.)^3
     number of atoms/cell      =            4
     number of atomic types    =            2
     number of electrons       =        36.00
     number of Kohn-Sham states=           18
     kinetic-energy cutoff     =      30.0000  Ry
     charge density cutoff     =     400.0000  Ry
     scf convergence threshold =      1.0E-06
     mixing beta               =       0.7000
     number of iterations used =            8  plain     mixing
     Exchange-correlation= PBE
                           (   1   4   3   4   0   0   0)

     celldm(1)=   6.026337  celldm(2)=   0.000000  celldm(3)=   1.625902
     celldm(4)=   0.000000  celldm(5)=   0.000000  celldm(6)=   0.000000

     crystal axes: (cart. coord. in units of alat)
               a(1) = (   1.000000   0.000000   0.000000 )  
               a(2) = (  -0.500000   0.866025   0.000000 )  
               a(3) = (   0.000000   0.000000   1.625902 )  

     reciprocal axes: (cart. coord. in units 2 pi/alat)
               b(1) = (  1.000000  0.577350 -0.000000 )  
               b(2) = (  0.000000  1.154701  0.000000 )  
               b(3) = (  0.000000 -0.000000  0.615043 )  


     PseudoPot. # 1 for Ga read from file:
     /home/nico-sachs/source/q-e/SSSP_1.3.0_PBE_efficiency/Ga.pbe-dn-kjpaw_psl.1.0.0.UPF
     MD5 check sum: a27b4342b1af7e5f338de752e9ed7044
     Pseudo is Projector augmented-wave + core cor, Zval = 13.0
     Generated using "atomic" code by A. Dal Corso  v.5.1
     Shape of augmentation charge: PSQ
     Using radial grid of 1205 points,  6 beta functions with: 
                l(1) =   0
                l(2) =   0
                l(3) =   1
                l(4) =   1
                l(5) =   2
                l(6) =   2
     Q(r) pseudized with 0 coefficients 


     PseudoPot. # 2 for N  read from file:
     /home/nico-sachs/source/q-e/SSSP_1.3.0_PBE_efficiency/N.pbe-n-radius_5.UPF
     MD5 check sum: 16739722b17309cd8fe442a2ace49922
     Pseudo is Ultrasoft + core correction, Zval =  5.0
     Generated using "atomic" code by A. Dal Corso  v.5.1
     Using radial grid of 1085 points,  4 beta functions with: 
                l(1) =   0
                l(2) =   0
                l(3) =   1
                l(4) =   1
     Q(r) pseudized with 0 coefficients 


     atomic species   valence    mass     pseudopotential
     Ga               13.00    69.72300     Ga( 1.00)
     N                 5.00    14.00700     N ( 1.00)

     12 Sym. Ops. (no inversion) found ( 6 have fractional translation)



   Cartesian axes

     site n.     atom                  positions (alat units)
         1        Ga     tau(   1) = (  -0.0000000   0.5773503   0.0000000  )
         2        Ga     tau(   2) = (   0.5000000   0.2886751   0.8129508  )
         3        N      tau(   3) = (  -0.0000000   0.5773503   0.6097131  )
         4        N      tau(   4) = (   0.5000000   0.2886751   1.4226638  )

     number of k points=    21
                       cart. coord. in units 2pi/alat
        k(    1) = (   0.0000000   0.0000000   0.0000000), wk =   0.0138889
        k(    2) = (   0.0000000   0.0000000   0.1537608), wk =   0.0277778
        k(    3) = (   0.0000000   0.0000000  -0.3075217), wk =   0.0138889
        k(    4) = (   0.0000000   0.1924501   0.0000000), wk =   0.0833333
        k(    5) = (   0.0000000   0.1924501   0.1537608), wk =   0.1666667
        k(    6) = (   0.0000000   0.1924501  -0.3075217), wk =   0.0833333
        k(    7) = (   0.0000000   0.3849002   0.0000000), wk =   0.0833333
        k(    8) = (   0.0000000   0.3849002   0.1537608), wk =   0.1666667
        k(    9) = (   0.0000000   0.3849002  -0.3075217), wk =   0.0833333
        k(   10) = (   0.0000000  -0.5773503   0.0000000), wk =   0.0416667
        k(   11) = (   0.0000000  -0.5773503   0.1537608), wk =   0.0833333
        k(   12) = (   0.0000000  -0.5773503  -0.3075217), wk =   0.0416667
        k(   13) = (   0.1666667   0.2886751   0.0000000), wk =   0.0833333
        k(   14) = (   0.1666667   0.2886751   0.1537608), wk =   0.1666667
        k(   15) = (   0.1666667   0.2886751  -0.3075217), wk =   0.0833333
        k(   16) = (   0.1666667   0.4811252   0.0000000), wk =   0.1666667
        k(   17) = (   0.1666667   0.4811252   0.1537608), wk =   0.3333333
        k(   18) = (   0.1666667   0.4811252  -0.3075217), wk =   0.1666667
        k(   19) = (   0.3333333   0.5773503   0.0000000), wk =   0.0277778
        k(   20) = (   0.3333333   0.5773503   0.1537608), wk =   0.0555556
        k(   21) = (   0.3333333   0.5773503  -0.3075217), wk =   0.0277778

     Dense  grid:    41745 G-vectors     FFT dimensions: (  40,  40,  64)

     Smooth grid:     6791 G-vectors     FFT dimensions: (  24,  24,  36)

     Estimated max dynamical RAM per process >      43.03 MB

     Estimated total dynamical RAM >     172.13 MB

     Initial potential from superposition of free atoms

     starting charge      35.9941, renormalised to      36.0000
     Starting wfcs are   26 randomized atomic wfcs
     Checking if some PAW data can be deallocated... 

     total cpu time spent up to now is        1.2 secs

     Self-consistent Calculation

     iteration #  1     ecut=    30.00 Ry     beta= 0.70
     CG style diagonalization
     ethr =  1.00E-02,  avg # of iterations =  2.0

     total cpu time spent up to now is        1.8 secs

     total energy              =    -595.54923723 Ry
     estimated scf accuracy    <       1.09340007 Ry

     iteration #  2     ecut=    30.00 Ry     beta= 0.70
     CG style diagonalization
     ethr =  3.04E-03,  avg # of iterations =  4.2

     total cpu time spent up to now is        2.6 secs

     total energy              =    -595.92406256 Ry
     estimated scf accuracy    <       1.09164803 Ry

     iteration #  3     ecut=    30.00 Ry     beta= 0.70
     CG style diagonalization
     ethr =  3.03E-03,  avg # of iterations =  3.6

     total cpu time spent up to now is        3.4 secs

     total energy              =    -596.09624238 Ry
     estimated scf accuracy    <       0.01352700 Ry

     iteration #  4     ecut=    30.00 Ry     beta= 0.70
     CG style diagonalization
     ethr =  3.76E-05,  avg # of iterations =  5.4

     total cpu time spent up to now is        4.5 secs

     total energy              =    -596.11930423 Ry
     estimated scf accuracy    <       0.02283783 Ry

     iteration #  5     ecut=    30.00 Ry     beta= 0.70
     CG style diagonalization
     ethr =  3.76E-05,  avg # of iterations =  3.6

     total cpu time spent up to now is        5.2 secs

     total energy              =    -596.12044003 Ry
     estimated scf accuracy    <       0.00272463 Ry

     iteration #  6     ecut=    30.00 Ry     beta= 0.70
     CG style diagonalization
     ethr =  7.57E-06,  avg # of iterations =  4.1

     total cpu time spent up to now is        6.1 secs

     total energy              =    -596.12123218 Ry
     estimated scf accuracy    <       0.00003900 Ry

     iteration #  7     ecut=    30.00 Ry     beta= 0.70
     CG style diagonalization
     ethr =  1.08E-07,  avg # of iterations =  7.5

     total cpu time spent up to now is        7.4 secs

     total energy              =    -596.12137965 Ry
     estimated scf accuracy    <       0.00000381 Ry

     iteration #  8     ecut=    30.00 Ry     beta= 0.70
     CG style diagonalization
     ethr =  1.06E-08,  avg # of iterations =  5.3

     total cpu time spent up to now is        8.4 secs

     total energy              =    -596.12138219 Ry
     estimated scf accuracy    <       0.00000203 Ry

     iteration #  9     ecut=    30.00 Ry     beta= 0.70
     CG style diagonalization
     ethr =  5.63E-09,  avg # of iterations =  3.3

     total cpu time spent up to now is        9.2 secs

     total energy              =    -596.12138186 Ry
     estimated scf accuracy    <       0.00000110 Ry

     iteration # 10     ecut=    30.00 Ry     beta= 0.70
     CG style diagonalization
     ethr =  3.06E-09,  avg # of iterations =  4.3

     total cpu time spent up to now is       10.1 secs

     End of self-consistent calculation

          k = 0.0000 0.0000 0.0000 (   845 PWs)   bands (ev):

    -6.2337  -5.2946  -3.8465  -3.8273  -3.8273  -3.7684  -3.7684  -3.5884
    -3.5884  -3.4933  -3.4933  -2.1324   2.6817   9.0740   9.0740  10.3074
    10.3959  10.3959

          k = 0.0000 0.0000 0.1538 (   845 PWs)   bands (ev):

    -6.0518  -5.3679  -3.8236  -3.8236  -3.7898  -3.7815  -3.7815  -3.5699
    -3.5699  -3.5026  -3.5026  -2.7260   3.8282   8.6300   9.2652   9.2652
    10.1960  10.1960

          k = 0.0000 0.0000-0.3075 (   834 PWs)   bands (ev):

    -5.6504  -5.6504  -3.8070  -3.8070  -3.8070  -3.8070  -3.5317  -3.5317
    -3.5317  -3.5317  -3.4849  -3.4849   6.1894   6.1894   9.7262   9.7262
     9.7262   9.7262

          k = 0.0000 0.1925 0.0000 (   861 PWs)   bands (ev):

    -5.9727  -5.2394  -3.8159  -3.7956  -3.7526  -3.7206  -3.7175  -3.6095
    -3.5873  -3.5280  -3.4876  -1.9324   3.0688   7.2692   8.4655   8.4834
     9.9146  10.0781

          k = 0.0000 0.1925 0.1538 (   865 PWs)   bands (ev):

    -5.8168  -5.2893  -3.8073  -3.7882  -3.7599  -3.7349  -3.6905  -3.5721
    -3.5703  -3.5253  -3.4998  -2.4883   4.0744   7.4585   7.8145   8.6895
     9.4941   9.8129

          k = 0.0000 0.1925-0.3075 (   864 PWs)   bands (ev):

    -5.4946  -5.4946  -3.7837  -3.7837  -3.7647  -3.7647  -3.6099  -3.6099
    -3.5324  -3.5324  -3.2408  -3.2408   6.0143   6.0143   8.4376   8.4376
     9.2314   9.2314

          k = 0.0000 0.3849 0.0000 (   859 PWs)   bands (ev):

    -5.4948  -5.1654  -3.7799  -3.7622  -3.6867  -3.6268  -3.6264  -3.5921
    -3.5447  -3.4765  -3.1394  -1.5321   3.8216   4.9674   6.1072   7.5219
     8.7970   9.4368

          k = 0.0000 0.3849 0.1538 (   860 PWs)   bands (ev):

    -5.4106  -5.1791  -3.7869  -3.7411  -3.7176  -3.6439  -3.6262  -3.5760
    -3.5378  -3.4903  -3.0150  -1.9243   3.8949   5.2444   6.2269   7.7665
     8.9146   9.1135

          k = 0.0000 0.3849-0.3075 (   858 PWs)   bands (ev):

    -5.2573  -5.2573  -3.7712  -3.7712  -3.6912  -3.6912  -3.5927  -3.5927
    -3.5170  -3.5170  -2.5915  -2.5915   4.4442   4.4442   7.9168   7.9168
     8.4028   8.4028

          k = 0.0000-0.5774 0.0000 (   860 PWs)   bands (ev):

    -5.3130  -5.1469  -3.7818  -3.7601  -3.6713  -3.6267  -3.5837  -3.5785
    -3.5026  -3.4674  -2.2609  -1.6728   3.3706   4.5711   5.5979   7.1110
     7.7841   9.1405

          k = 0.0000-0.5774 0.1538 (   866 PWs)   bands (ev):

    -5.2646  -5.1471  -3.7939  -3.7330  -3.7102  -3.6313  -3.6054  -3.5382
    -3.5015  -3.4805  -2.1988  -1.7747   3.0888   3.9761   6.5919   7.3633
     8.3217   8.7703

          k = 0.0000-0.5774-0.3075 (   844 PWs)   bands (ev):

    -5.1804  -5.1804  -3.7838  -3.7838  -3.6659  -3.6659  -3.5598  -3.5598
    -3.4952  -3.4952  -2.0066  -2.0066   3.2250   3.2250   8.0300   8.0300
     8.1061   8.1061

          k = 0.1667 0.2887 0.0000 (   855 PWs)   bands (ev):

    -5.6018  -5.1787  -3.7844  -3.7635  -3.6979  -3.6743  -3.6276  -3.5697
    -3.5576  -3.5112  -3.3333  -1.6029   3.7120   5.8514   6.3646   7.5393
     9.1709   9.2386

          k = 0.1667 0.2887 0.1538 (   858 PWs)   bands (ev):

    -5.4985  -5.1997  -3.7687  -3.7653  -3.7118  -3.6976  -3.6073  -3.6013
    -3.5364  -3.5194  -3.2179  -2.0640   4.2233   6.0241   6.4765   7.5180
     8.8128   9.1905

          k = 0.1667 0.2887-0.3075 (   856 PWs)   bands (ev):

    -5.3050  -5.3050  -3.7493  -3.7493  -3.7230  -3.7230  -3.6213  -3.6213
    -3.5222  -3.5222  -2.7952  -2.7952   5.1388   5.1388   7.9175   7.9175
     8.1925   8.1925

          k = 0.1667 0.4811 0.0000 (   861 PWs)   bands (ev):

    -5.3035  -5.1503  -3.8042  -3.7264  -3.6424  -3.6273  -3.6080  -3.5884
    -3.5281  -3.4931  -2.4356  -1.4369   3.7887   4.8102   5.6567   6.2157
     7.9809   8.3129

          k = 0.1667 0.4811 0.1538 (   854 PWs)   bands (ev):

    -5.2555  -5.1480  -3.7752  -3.7426  -3.6906  -3.6300  -3.6081  -3.5672
    -3.5200  -3.5100  -2.3322  -1.6255   3.5332   4.3893   6.1081   6.9022
     7.8268   8.5260

          k = 0.1667 0.4811-0.3075 (   852 PWs)   bands (ev):

    -5.1760  -5.1760  -3.7510  -3.7510  -3.6855  -3.6855  -3.5861  -3.5861
    -3.5132  -3.5132  -2.0238  -2.0238   3.7004   3.7004   6.8915   6.8915
     8.3258   8.3258

          k = 0.3333 0.5774 0.0000 (   867 PWs)   bands (ev):

    -5.1847  -5.1847  -3.8322  -3.6354  -3.6354  -3.6181  -3.6039  -3.6039
    -3.5590  -3.5104  -1.6756  -1.6756   4.4719   4.4719   4.5171   6.9220
     6.9220   7.2982

          k = 0.3333 0.5774 0.1538 (   852 PWs)   bands (ev):

    -5.1632  -5.1632  -3.7939  -3.6859  -3.6859  -3.6268  -3.5642  -3.5642
    -3.5626  -3.5457  -1.6650  -1.6650   3.9888   3.9888   4.8438   6.7668
     7.7510   7.7510

          k = 0.3333 0.5774-0.3075 (   840 PWs)   bands (ev):

    -5.1413  -5.1413  -3.7164  -3.7164  -3.6997  -3.6997  -3.5689  -3.5689
    -3.5452  -3.5452  -1.6556  -1.6556   3.6438   3.6438   5.7080   5.7080
     8.5050   8.5050

     highest occupied level (ev):    10.3959

!    total energy              =    -596.12138228 Ry
     estimated scf accuracy    <       0.00000002 Ry

     The total energy is the sum of the following terms:
     one-electron contribution =    -181.03000263 Ry
     hartree contribution      =     127.63428265 Ry
     xc contribution           =     -87.43801578 Ry
     ewald contribution        =    -233.28276133 Ry
     one-center paw contrib.   =    -222.00488520 Ry

     convergence has been achieved in  10 iterations

     Forces acting on atoms (cartesian axes, Ry/au):

     atom    1 type  1   force =    -0.00000000    0.00000000   -0.00508548
     atom    2 type  1   force =     0.00000000    0.00000000   -0.00508548
     atom    3 type  2   force =     0.00000000   -0.00000000    0.00508548
     atom    4 type  2   force =     0.00000000    0.00000000    0.00508548

     Total force =     0.010171     Total SCF correction =     0.000145


     Computing stress (Cartesian axis) and pressure

          total   stress  (Ry/bohr**3)                   (kbar)     P=      108.24
   0.00068054   0.00000000   0.00000000          100.11        0.00        0.00
   0.00000000   0.00068054   0.00000000            0.00      100.11        0.00
   0.00000000   0.00000000   0.00084629            0.00        0.00      124.49


     Writing all to output data dir /home/nico-sachs/source/q-e/tempdir/gan.save/ :
     XML data file, charge density, pseudopotentials, collected wavefunctions

     init_run     :      0.96s CPU      1.01s WALL (       1 calls)
     electrons    :      8.53s CPU      8.89s WALL (       1 calls)
     forces       :      0.12s CPU      0.13s WALL (       1 calls)
     stress       :      0.54s CPU      0.54s WALL (       1 calls)

     Called by init_run:
     wfcinit      :      0.14s CPU      0.14s WALL (       1 calls)
     potinit      :      0.39s CPU      0.42s WALL (       1 calls)
     hinit0       :      0.31s CPU      0.32s WALL (       1 calls)

     Called by electrons:
     c_bands      :      5.02s CPU      5.36s WALL (      10 calls)
     sum_band     :      0.75s CPU      0.77s WALL (      10 calls)
     v_of_rho     :      0.12s CPU      0.12s WALL (      11 calls)
     newd         :      0.44s CPU      0.46s WALL (      11 calls)
     PAW_pot      :      2.45s CPU      2.48s WALL (      11 calls)
     mix_rho      :      0.01s CPU      0.01s WALL (      10 calls)

     Called by c_bands:
     init_us_2    :      0.04s CPU      0.04s WALL (     483 calls)
     ccgdiagg     :      4.23s CPU      4.54s WALL (     210 calls)
     wfcrot       :      0.89s CPU      0.92s WALL (     210 calls)

     Called by *cgdiagg:
     h_psi        :      3.04s CPU      3.24s WALL (   13199 calls)
     s_psi        :      0.78s CPU      0.83s WALL (   26188 calls)

     Called by h_psi:
     h_psi:calbec :      0.62s CPU      0.66s WALL (   13199 calls)
     vloc_psi     :      1.89s CPU      2.01s WALL (   13199 calls)
                                        0.00s GPU  (   13199 calls)
     add_vuspsi   :      0.44s CPU      0.47s WALL (   13199 calls)
     hs_1psi      :      2.84s CPU      3.05s WALL (   12989 calls)
     s_1psi       :      0.90s CPU      0.96s WALL (   12989 calls)

     General routines
     calbec       :      1.33s CPU      1.42s WALL (   26755 calls)
     fft          :      0.23s CPU      0.23s WALL (     166 calls)
     ffts         :      0.15s CPU      0.15s WALL (      21 calls)
     fftw         :      1.87s CPU      1.99s WALL (   37654 calls)
     interpolate  :      0.15s CPU      0.15s WALL (      11 calls)

     Parallel routines

     PWSCF        :     10.31s CPU     10.79s WALL


   This run was terminated on:  15:37:47  27Jan2026            

=------------------------------------------------------------------------------=
   JOB DONE.
=------------------------------------------------------------------------------=
