[Molden Format]
[FREQ]
    0.00
    0.00
    0.00
  195.31
  195.31
  209.62
[FR-COORD]
In             0.00000        0.00000        0.00000
As            -2.87696        2.87696        2.87696
[FR-NORM-COORD]
 vibration     1
   0.00000  -0.09702  -0.70042
   0.00000  -0.09702  -0.70042
 vibration     2
  -0.70711   0.00000   0.00000
  -0.70711   0.00000   0.00000
 vibration     3
   0.00000   0.70042  -0.09702
   0.00000   0.70042  -0.09702
 vibration     4
   0.00000   0.54647   0.00000
   0.00000  -0.83748   0.00000
 vibration     5
  -0.54647   0.00000   0.00000
   0.83748   0.00000   0.00000
 vibration     6
   0.00000   0.00000  -0.54647
   0.00000  -0.00000   0.83748
