ANIMSTEPS    6
CRYSTAL
PRIMVEC
   -3.044840427    0.000000000    3.044840427
    0.000000000    3.044840427    3.044840427
   -3.044840427    3.044840427    0.000000000
PRIMCOORD    1
      2   1
In        0.00000   0.00000   0.00000   0.00000  -0.00970  -0.07004
As       -1.52242   1.52242   1.52242   0.00000  -0.00970  -0.07004
PRIMCOORD    2
      2   1
In        0.00000   0.00000   0.00000  -0.07071   0.00000   0.00000
As       -1.52242   1.52242   1.52242  -0.07071   0.00000   0.00000
PRIMCOORD    3
      2   1
In        0.00000   0.00000   0.00000   0.00000   0.07004  -0.00970
As       -1.52242   1.52242   1.52242   0.00000   0.07004  -0.00970
PRIMCOORD    4
      2   1
In        0.00000   0.00000   0.00000   0.00000   0.05465   0.00000
As       -1.52242   1.52242   1.52242   0.00000  -0.08375   0.00000
PRIMCOORD    5
      2   1
In        0.00000   0.00000   0.00000  -0.05465   0.00000   0.00000
As       -1.52242   1.52242   1.52242   0.08375   0.00000   0.00000
PRIMCOORD    6
      2   1
In        0.00000   0.00000   0.00000   0.00000   0.00000  -0.05465
As       -1.52242   1.52242   1.52242   0.00000  -0.00000   0.08375
