
     Program PWSCF v.7.5 starts on 26Feb2026 at 11:38:35 
        Git branch: develop
        Last git commit: 797f00f1d3f390f642411209b167af6668f3cb83
        Last git commit date: Mon Dec 8 18:25:28 2025 +0000
        Last git commit subject: Merge branch 'uniform_uv' into 'develop'

     This program is part of the open-source Quantum ESPRESSO suite
     for quantum simulation of materials; please cite
         "P. Giannozzi et al., J. Phys.:Condens. Matter 21 395502 (2009);
         "P. Giannozzi et al., J. Phys.:Condens. Matter 29 465901 (2017);
         "P. Giannozzi et al., J. Chem. Phys. 152 154105 (2020);
          URL http://www.quantum-espresso.org", 
     in publications or presentations arising from this work. More details at
     http://www.quantum-espresso.org/quote

     Parallel version (MPI), running on    24 processors

     MPI processes distributed on     1 nodes
     94798 MiB available memory on the printing compute node when the environment starts

     Waiting for input...
     Reading input from standard input

     Current dimensions of program PWSCF are:
     Max number of different atomic species (ntypx) = 10
     Max number of k-points (npk) =  40000
     Max angular momentum in pseudopotentials (lmaxx) =  4

     File /home/sachs/software/q-e/tempdir/gaasGGA.update deleted, as requested

     K-points division:     npool     =       3
     R & G space division:  proc/nbgrp/npool/nimage =       8
     Subspace diagonalization in iterative solution of the eigenvalue problem:
     a serial algorithm will be used


     Parallelization info
     --------------------
     sticks:   dense  smooth     PW     G-vecs:    dense   smooth      PW
     Min         293      20      7                 9430      161      40
     Max         294      21      8                 9435      162      42
     Sum        2347     163     61                75457     1291     331

     Using Slab Decomposition



     bravais-lattice index     =            2
     lattice parameter (alat)  =      10.6840  a.u.
     unit-cell volume          =     304.8889 (a.u.)^3
     number of atoms/cell      =            2
     number of atomic types    =            2
     number of electrons       =        28.00
     number of Kohn-Sham states=           14
     kinetic-energy cutoff     =      10.0000  Ry
     charge density cutoff     =     600.0000  Ry
     scf convergence threshold =      1.0E-09
     mixing beta               =       0.3000
     number of iterations used =            8  plain     mixing
     energy convergence thresh.=      1.0E-04
     force convergence thresh. =      1.0E-05
     press convergence thresh. =      5.0E-01
     Exchange-correlation= PBE
                           (   1   4   3   4   0   0   0)
     nstep                     =           50


     celldm(1)=  10.684000  celldm(2)=   0.000000  celldm(3)=   0.000000
     celldm(4)=   0.000000  celldm(5)=   0.000000  celldm(6)=   0.000000

     crystal axes: (cart. coord. in units of alat)
               a(1) = (  -0.500000   0.000000   0.500000 )  
               a(2) = (   0.000000   0.500000   0.500000 )  
               a(3) = (  -0.500000   0.500000   0.000000 )  

     reciprocal axes: (cart. coord. in units 2 pi/alat)
               b(1) = ( -1.000000 -1.000000  1.000000 )  
               b(2) = (  1.000000  1.000000  1.000000 )  
               b(3) = ( -1.000000  1.000000 -1.000000 )  


     PseudoPot. # 1 for Ga read from file:
     /home/sachs/software/q-e/Pseudofolder/nc-sr-05_pbe_GGA_standard_upf/Ga.upf
     MD5 check sum: 2bb81bf6f0a8d9832cf3329850435ecf
     Pseudo is Norm-conserving + core correction, Zval = 13.0
     Generated using ONCVPSP code by D. R. Hamann
     Using radial grid of 1902 points,  6 beta functions with: 
                l(1) =   0
                l(2) =   0
                l(3) =   1
                l(4) =   1
                l(5) =   2
                l(6) =   2

     PseudoPot. # 2 for As read from file:
     /home/sachs/software/q-e/Pseudofolder/nc-sr-05_pbe_GGA_standard_upf/As.upf
     MD5 check sum: bfe1a874457ce592347346129958e7cf
     Pseudo is Norm-conserving + core correction, Zval = 15.0
     Generated using ONCVPSP code by D. R. Hamann
     Using radial grid of 1358 points,  6 beta functions with: 
                l(1) =   0
                l(2) =   0
                l(3) =   1
                l(4) =   1
                l(5) =   2
                l(6) =   2

     atomic species   valence    mass     pseudopotential
     Ga               13.00    69.72300     Ga( 1.00)
     As               15.00    74.92100     As( 1.00)

     24 Sym. Ops. (no inversion) found



   Cartesian axes

     site n.     atom                  positions (alat units)
         1        Ga     tau(   1) = (   0.0000000   0.0000000   0.0000000  )
         2        As     tau(   2) = (  -0.2500000   0.2500000   0.2500000  )

     number of k points=    72
                       cart. coord. in units 2pi/alat
        k(    1) = (   0.0000000   0.0000000   0.0000000), wk =   0.0011574
        k(    2) = (  -0.0833333   0.0833333  -0.0833333), wk =   0.0092593
        k(    3) = (  -0.1666667   0.1666667  -0.1666667), wk =   0.0092593
        k(    4) = (  -0.2500000   0.2500000  -0.2500000), wk =   0.0092593
        k(    5) = (  -0.3333333   0.3333333  -0.3333333), wk =   0.0092593
        k(    6) = (  -0.4166667   0.4166667  -0.4166667), wk =   0.0092593
        k(    7) = (   0.5000000  -0.5000000   0.5000000), wk =   0.0046296
        k(    8) = (   0.0000000   0.1666667   0.0000000), wk =   0.0069444
        k(    9) = (  -0.0833333   0.2500000  -0.0833333), wk =   0.0277778
        k(   10) = (  -0.1666667   0.3333333  -0.1666667), wk =   0.0277778
        k(   11) = (  -0.2500000   0.4166667  -0.2500000), wk =   0.0277778
        k(   12) = (  -0.3333333   0.5000000  -0.3333333), wk =   0.0277778
        k(   13) = (   0.5833333  -0.4166667   0.5833333), wk =   0.0277778
        k(   14) = (   0.5000000  -0.3333333   0.5000000), wk =   0.0277778
        k(   15) = (   0.4166667  -0.2500000   0.4166667), wk =   0.0277778
        k(   16) = (   0.3333333  -0.1666667   0.3333333), wk =   0.0277778
        k(   17) = (   0.2500000  -0.0833333   0.2500000), wk =   0.0277778
        k(   18) = (   0.1666667  -0.0000000   0.1666667), wk =   0.0138889
        k(   19) = (   0.0000000   0.3333333   0.0000000), wk =   0.0069444
        k(   20) = (  -0.0833333   0.4166667  -0.0833333), wk =   0.0277778
        k(   21) = (  -0.1666667   0.5000000  -0.1666667), wk =   0.0277778
        k(   22) = (  -0.2500000   0.5833333  -0.2500000), wk =   0.0277778
        k(   23) = (   0.6666667  -0.3333333   0.6666667), wk =   0.0277778
        k(   24) = (   0.5833333  -0.2500000   0.5833333), wk =   0.0277778
        k(   25) = (   0.5000000  -0.1666667   0.5000000), wk =   0.0277778
        k(   26) = (   0.4166667  -0.0833333   0.4166667), wk =   0.0277778
        k(   27) = (   0.3333333   0.0000000   0.3333333), wk =   0.0138889
        k(   28) = (   0.0000000   0.5000000   0.0000000), wk =   0.0069444
        k(   29) = (  -0.0833333   0.5833333  -0.0833333), wk =   0.0277778
        k(   30) = (  -0.1666667   0.6666667  -0.1666667), wk =   0.0277778
        k(   31) = (   0.7500000  -0.2500000   0.7500000), wk =   0.0277778
        k(   32) = (   0.6666667  -0.1666667   0.6666667), wk =   0.0277778
        k(   33) = (   0.5833333  -0.0833333   0.5833333), wk =   0.0277778
        k(   34) = (   0.5000000   0.0000000   0.5000000), wk =   0.0138889
        k(   35) = (   0.0000000   0.6666667   0.0000000), wk =   0.0069444
        k(   36) = (  -0.0833333   0.7500000  -0.0833333), wk =   0.0277778
        k(   37) = (   0.8333333  -0.1666667   0.8333333), wk =   0.0277778
        k(   38) = (   0.7500000  -0.0833333   0.7500000), wk =   0.0277778
        k(   39) = (   0.6666667   0.0000000   0.6666667), wk =   0.0138889
        k(   40) = (   0.0000000   0.8333333   0.0000000), wk =   0.0069444
        k(   41) = (   0.9166667  -0.0833333   0.9166667), wk =   0.0277778
        k(   42) = (   0.8333333   0.0000000   0.8333333), wk =   0.0138889
        k(   43) = (   0.0000000  -1.0000000   0.0000000), wk =   0.0034722
        k(   44) = (  -0.1666667   0.3333333   0.0000000), wk =   0.0277778
        k(   45) = (  -0.2500000   0.4166667  -0.0833333), wk =   0.0555556
        k(   46) = (  -0.3333333   0.5000000  -0.1666667), wk =   0.0555556
        k(   47) = (   0.5833333  -0.4166667   0.7500000), wk =   0.0555556
        k(   48) = (   0.5000000  -0.3333333   0.6666667), wk =   0.0277778
        k(   49) = (  -0.1666667   0.5000000   0.0000000), wk =   0.0277778
        k(   50) = (  -0.2500000   0.5833333  -0.0833333), wk =   0.0555556
        k(   51) = (   0.6666667  -0.3333333   0.8333333), wk =   0.0555556
        k(   52) = (   0.5833333  -0.2500000   0.7500000), wk =   0.0555556
        k(   53) = (   0.5000000  -0.1666667   0.6666667), wk =   0.0555556
        k(   54) = (   0.4166667  -0.0833333   0.5833333), wk =   0.0555556
        k(   55) = (   0.3333333   0.0000000   0.5000000), wk =   0.0277778
        k(   56) = (  -0.1666667   0.6666667  -0.0000000), wk =   0.0277778
        k(   57) = (   0.7500000  -0.2500000   0.9166667), wk =   0.0555556
        k(   58) = (   0.6666667  -0.1666667   0.8333333), wk =   0.0555556
        k(   59) = (   0.5833333  -0.0833333   0.7500000), wk =   0.0555556
        k(   60) = (   0.5000000   0.0000000   0.6666667), wk =   0.0277778
        k(   61) = (   0.8333333  -0.1666667   1.0000000), wk =   0.0277778
        k(   62) = (   0.7500000  -0.0833333   0.9166667), wk =   0.0555556
        k(   63) = (   0.6666667   0.0000000   0.8333333), wk =   0.0277778
        k(   64) = (  -0.1666667  -1.0000000   0.0000000), wk =   0.0138889
        k(   65) = (   0.6666667  -0.3333333   1.0000000), wk =   0.0277778
        k(   66) = (   0.5833333  -0.2500000   0.9166667), wk =   0.0555556
        k(   67) = (   0.5000000  -0.1666667   0.8333333), wk =   0.0277778
        k(   68) = (   0.6666667  -0.1666667   1.0000000), wk =   0.0277778
        k(   69) = (   0.5833333  -0.0833333   0.9166667), wk =   0.0555556
        k(   70) = (   0.5000000   0.0000000   0.8333333), wk =   0.0277778
        k(   71) = (  -0.3333333  -1.0000000   0.0000000), wk =   0.0138889
        k(   72) = (  -0.5000000  -1.0000000   0.0000000), wk =   0.0069444

     Dense  grid:    75457 G-vectors     FFT dimensions: (  60,  60,  60)

     Smooth grid:     1291 G-vectors     FFT dimensions: (  15,  15,  15)

     Estimated max dynamical RAM per process >      14.11 MB

     Estimated total dynamical RAM >     301.82 MB

     Initial potential from superposition of free atoms

     starting charge      27.9971, renormalised to      28.0000
     Starting wfcs are   18 randomized atomic wfcs

     total cpu time spent up to now is        1.8 secs

     per-process dynamical memory:    14.3 Mb

     Self-consistent Calculation

     iteration #  1     ecut=    10.00 Ry     beta= 0.30
     CG style diagonalization
     ethr =  1.00E-02,  avg # of iterations =  5.8

     total cpu time spent up to now is        2.3 secs

     total energy              =    -279.08080833 Ry
     estimated scf accuracy    <      83.44049669 Ry

     iteration #  2     ecut=    10.00 Ry     beta= 0.30
     CG style diagonalization
     ethr =  1.00E-02,  avg # of iterations =  5.1

     negative rho (up, down):  1.731E-03 0.000E+00

     total cpu time spent up to now is        2.7 secs

     total energy              =    -269.76144073 Ry
     estimated scf accuracy    <      23.07459084 Ry

     iteration #  3     ecut=    10.00 Ry     beta= 0.30
     CG style diagonalization
     ethr =  1.00E-02,  avg # of iterations =  4.1

     negative rho (up, down):  2.403E-02 0.000E+00

     total cpu time spent up to now is        3.0 secs

     total energy              =    -270.18266511 Ry
     estimated scf accuracy    <       3.12850168 Ry

     iteration #  4     ecut=    10.00 Ry     beta= 0.30
     CG style diagonalization
     ethr =  1.00E-02,  avg # of iterations =  3.4

     negative rho (up, down):  4.362E-02 0.000E+00

     total cpu time spent up to now is        3.3 secs

     total energy              =    -270.31777693 Ry
     estimated scf accuracy    <       0.33255766 Ry

     iteration #  5     ecut=    10.00 Ry     beta= 0.30
     CG style diagonalization
     ethr =  1.19E-03,  avg # of iterations =  3.7

     negative rho (up, down):  2.031E-02 0.000E+00

     total cpu time spent up to now is        3.6 secs

     total energy              =    -270.42687992 Ry
     estimated scf accuracy    <       0.01333485 Ry

     iteration #  6     ecut=    10.00 Ry     beta= 0.30
     CG style diagonalization
     c_bands:  1 eigenvalues not converged
     ethr =  4.76E-05,  avg # of iterations =  4.7

     negative rho (up, down):  7.190E-03 0.000E+00

     total cpu time spent up to now is        4.0 secs

     total energy              =    -270.44776687 Ry
     estimated scf accuracy    <       0.00214146 Ry

     iteration #  7     ecut=    10.00 Ry     beta= 0.30
     CG style diagonalization
     c_bands:  1 eigenvalues not converged
     c_bands:  1 eigenvalues not converged
     ethr =  7.65E-06,  avg # of iterations =  4.4

     negative rho (up, down):  1.504E-03 0.000E+00

     total cpu time spent up to now is        4.4 secs

     total energy              =    -270.44858896 Ry
     estimated scf accuracy    <       0.00210286 Ry

     iteration #  8     ecut=    10.00 Ry     beta= 0.30
     CG style diagonalization
     ethr =  7.51E-06,  avg # of iterations =  3.8

     negative rho (up, down):  3.496E-04 0.000E+00

     total cpu time spent up to now is        4.7 secs

     total energy              =    -270.45354123 Ry
     estimated scf accuracy    <       0.00041224 Ry

     iteration #  9     ecut=    10.00 Ry     beta= 0.30
     CG style diagonalization
     c_bands:  1 eigenvalues not converged
     ethr =  1.47E-06,  avg # of iterations =  4.4

     negative rho (up, down):  1.344E-04 0.000E+00

     total cpu time spent up to now is        5.1 secs

     total energy              =    -270.45910002 Ry
     estimated scf accuracy    <       0.00047415 Ry

     iteration # 10     ecut=    10.00 Ry     beta= 0.30
     CG style diagonalization
     ethr =  1.47E-06,  avg # of iterations =  3.1

     negative rho (up, down):  4.229E-05 0.000E+00

     total cpu time spent up to now is        5.3 secs

     total energy              =    -270.46246483 Ry
     estimated scf accuracy    <       0.00064022 Ry

     iteration # 11     ecut=    10.00 Ry     beta= 0.30
     CG style diagonalization
     ethr =  1.47E-06,  avg # of iterations =  4.3

     negative rho (up, down):  1.036E-05 0.000E+00

     total cpu time spent up to now is        5.7 secs

     total energy              =    -270.46500221 Ry
     estimated scf accuracy    <       0.00038759 Ry

     iteration # 12     ecut=    10.00 Ry     beta= 0.30
     CG style diagonalization
     ethr =  1.38E-06,  avg # of iterations =  3.0

     negative rho (up, down):  8.469E-07 0.000E+00

     total cpu time spent up to now is        5.9 secs

     total energy              =    -270.46627263 Ry
     estimated scf accuracy    <       0.00048234 Ry

     iteration # 13     ecut=    10.00 Ry     beta= 0.30
     CG style diagonalization
     ethr =  1.38E-06,  avg # of iterations =  3.0

     total cpu time spent up to now is        6.2 secs

     total energy              =    -270.46696495 Ry
     estimated scf accuracy    <       0.00027646 Ry

     iteration # 14     ecut=    10.00 Ry     beta= 0.30
     CG style diagonalization
     ethr =  9.87E-07,  avg # of iterations =  3.3

     total cpu time spent up to now is        6.5 secs

     total energy              =    -270.46734088 Ry
     estimated scf accuracy    <       0.00005685 Ry

     iteration # 15     ecut=    10.00 Ry     beta= 0.30
     CG style diagonalization
     ethr =  2.03E-07,  avg # of iterations =  3.2

     total cpu time spent up to now is        6.8 secs

     total energy              =    -270.46752133 Ry
     estimated scf accuracy    <       0.00003450 Ry

     iteration # 16     ecut=    10.00 Ry     beta= 0.30
     CG style diagonalization
     ethr =  1.23E-07,  avg # of iterations =  4.3

     total cpu time spent up to now is        7.1 secs

     total energy              =    -270.46762431 Ry
     estimated scf accuracy    <       0.00006553 Ry

     iteration # 17     ecut=    10.00 Ry     beta= 0.30
     CG style diagonalization
     ethr =  1.23E-07,  avg # of iterations =  3.0

     total cpu time spent up to now is        7.4 secs

     total energy              =    -270.46766140 Ry
     estimated scf accuracy    <       0.00004358 Ry

     iteration # 18     ecut=    10.00 Ry     beta= 0.30
     CG style diagonalization
     ethr =  1.23E-07,  avg # of iterations =  3.6

     total cpu time spent up to now is        7.7 secs

     total energy              =    -270.46768483 Ry
     estimated scf accuracy    <       0.00000266 Ry

     iteration # 19     ecut=    10.00 Ry     beta= 0.30
     CG style diagonalization
     ethr =  9.51E-09,  avg # of iterations =  4.2

     total cpu time spent up to now is        8.0 secs

     total energy              =    -270.46769586 Ry
     estimated scf accuracy    <       0.00000073 Ry

     iteration # 20     ecut=    10.00 Ry     beta= 0.30
     CG style diagonalization
     ethr =  2.59E-09,  avg # of iterations =  3.9

     total cpu time spent up to now is        8.3 secs

     total energy              =    -270.46770091 Ry
     estimated scf accuracy    <       0.00000004 Ry

     iteration # 21     ecut=    10.00 Ry     beta= 0.30
     CG style diagonalization
     ethr =  1.54E-10,  avg # of iterations =  5.4

     total cpu time spent up to now is        8.8 secs

     total energy              =    -270.46770329 Ry
     estimated scf accuracy    <       0.00000067 Ry

     iteration # 22     ecut=    10.00 Ry     beta= 0.30
     CG style diagonalization
     ethr =  1.54E-10,  avg # of iterations =  5.1

     total cpu time spent up to now is        9.2 secs

     total energy              =    -270.46770458 Ry
     estimated scf accuracy    <       0.00000002 Ry

     iteration # 23     ecut=    10.00 Ry     beta= 0.30
     CG style diagonalization
     ethr =  7.29E-11,  avg # of iterations =  3.4

     total cpu time spent up to now is        9.5 secs

     total energy              =    -270.46770514 Ry
     estimated scf accuracy    <       0.00000002 Ry

     iteration # 24     ecut=    10.00 Ry     beta= 0.30
     CG style diagonalization
     ethr =  5.48E-11,  avg # of iterations =  3.0

     total cpu time spent up to now is        9.8 secs

     total energy              =    -270.46770542 Ry
     estimated scf accuracy    <       0.00000002 Ry

     iteration # 25     ecut=    10.00 Ry     beta= 0.30
     CG style diagonalization
     ethr =  5.44E-11,  avg # of iterations =  3.6

     total cpu time spent up to now is       10.1 secs

     End of self-consistent calculation

          k = 0.0000 0.0000 0.0000 (   169 PWs)   bands (ev):

   -19.0069  -9.6537  -5.0233  -5.0233  -5.0233   2.4878   2.4878   2.4878
     7.0160   7.0160   9.8444   9.8444   9.8444  12.7055

          k =-0.0833 0.0833-0.0833 (   169 PWs)   bands (ev):

   -18.9917  -9.7457  -5.0287  -5.0287  -4.9266   2.5185   2.5185   2.5264
     7.0356   7.0356   9.8410   9.8834   9.8834  12.6662

          k =-0.1667 0.1667-0.1667 (   165 PWs)   bands (ev):

   -18.8770  -9.9327  -5.0272  -5.0272  -4.5948   2.6089   2.6089   2.8314
     7.5385   7.5385  10.1725  10.1725  10.5786  13.2207

          k =-0.2500 0.2500-0.2500 (   162 PWs)   bands (ev):

   -18.7626 -10.1735  -5.0041  -5.0041  -4.3473   2.7670   2.7670   3.0141
     8.3816   8.3816   9.9557  10.0267  10.0267  14.2363

          k =-0.3333 0.3333-0.3333 (   153 PWs)   bands (ev):

   -18.5405 -10.4046  -4.9607  -4.9607  -4.0249   2.9960   2.9960   3.4554
     9.1120   9.1120  11.0007  11.0007  11.8400  14.9865

          k =-0.4167 0.4167-0.4167 (   162 PWs)   bands (ev):

   -18.7006 -10.7745  -5.0391  -5.0391  -4.0404   3.0592   3.0592   3.7168
     7.4183   8.8390   8.8390   9.8192   9.8192  14.1154

          k = 0.5000-0.5000 0.5000 (   168 PWs)   bands (ev):

   -18.7982 -10.8636  -5.0868  -5.0868  -4.0959   2.9433   2.9433   3.8359
     6.6912   6.6912   7.2088   9.6343   9.6343  14.0382

          k = 0.0000 0.1667 0.0000 (   169 PWs)   bands (ev):

   -18.9866  -9.7755  -5.0376  -5.0376  -4.8807   2.4947   2.5510   2.5510
     6.9835   7.1009   9.8456   9.8456   9.9429  12.6328

          k =-0.0833 0.2500-0.0833 (   164 PWs)   bands (ev):

   -18.8711  -9.9118  -5.0373  -5.0153  -4.5846   2.6084   2.6913   2.7280
     7.2130   8.4343  10.1139  10.3612  10.6026  12.5980

          k =-0.1667 0.3333-0.1667 (   160 PWs)   bands (ev):

   -18.7363 -10.1226  -5.0179  -5.0174  -4.3185   2.7402   2.8607   2.9758
     8.3844   8.6575   9.8205  10.0149  11.6264  13.5456

          k =-0.2500 0.4167-0.2500 (   156 PWs)   bands (ev):

   -18.6066 -10.3820  -5.0329  -4.9964  -4.0327   2.8859   2.9902   3.3810
     8.4769   9.1064  10.1538  10.6449  12.0225  14.3981

          k =-0.3333 0.5000-0.3333 (   160 PWs)   bands (ev):

   -18.6455 -10.6817  -5.0460  -5.0372  -3.9559   2.9976   3.1014   3.6425
     7.8681   8.8070   9.0634  10.1468  11.0622  14.3281

          k = 0.5833-0.4167 0.5833 (   164 PWs)   bands (ev):

   -18.7204 -10.8715  -5.1103  -5.0695  -3.9443   3.0948   3.1107   3.8305
     7.2008   7.7300   8.4923   9.7841   9.9012  14.0609

          k = 0.5000-0.3333 0.5000 (   162 PWs)   bands (ev):

   -18.6893 -10.8427  -5.1104  -5.0485  -3.9285   3.1041   3.1541   3.7921
     7.2745   8.7067   8.9728   9.8932   9.8972  14.1105

          k = 0.4167-0.2500 0.4167 (   161 PWs)   bands (ev):

   -18.6701 -10.6083  -5.0878  -5.0176  -3.9922   2.9660   3.0095   3.5435
     7.9606   8.3064   9.1459  10.0209  10.9169  14.4040

          k = 0.3333-0.1667 0.3333 (   157 PWs)   bands (ev):

   -18.6447 -10.2937  -5.0327  -4.9460  -4.1314   2.8686   2.9262   3.2528
     8.4771   9.0398  10.1227  10.9735  11.5392  14.3948

          k = 0.2500-0.0833 0.2500 (   159 PWs)   bands (ev):

   -18.7411 -10.0252  -5.0365  -4.9065  -4.4054   2.7550   2.8052   2.9113
     8.3753   8.9594   9.6988  11.0528  11.1502  13.6844

          k = 0.1667-0.0000 0.1667 (   163 PWs)   bands (ev):

   -18.8617  -9.8203  -5.0297  -5.0010  -4.6538   2.5593   2.6930   2.7196
     7.6700   7.9544  10.4029  10.5385  10.6209  13.2434

          k = 0.0000 0.3333 0.0000 (   161 PWs)   bands (ev):

   -18.7952 -10.0121  -5.0481  -5.0481  -4.4158   2.6395   2.8241   2.8241
     7.3540   8.3330  10.6364  10.6364  11.4088  12.5566

          k =-0.0833 0.4167-0.0833 (   162 PWs)   bands (ev):

   -18.7641 -10.2159  -5.0976  -5.0615  -4.2039   2.6874   2.9011   3.0149
     7.9294   8.1627   9.6371   9.8275  11.7042  12.7964

          k =-0.1667 0.5000-0.1667 (   159 PWs)   bands (ev):

   -18.6478 -10.4318  -5.0921  -5.0688  -3.9253   2.8367   3.0987   3.3031
     8.1334   9.0699   9.7940  10.3642  12.1842  13.2703

          k =-0.2500 0.5833-0.2500 (   160 PWs)   bands (ev):

   -18.6176 -10.6810  -5.1065  -5.0768  -3.8172   2.9921   3.2337   3.5842
     7.8833   8.4147   9.2533   9.8606  11.9633  13.7370

          k = 0.6667-0.3333 0.6667 (   162 PWs)   bands (ev):

   -18.6466 -10.8558  -5.1708  -5.0561  -3.7779   3.0834   3.2848   3.7870
     7.0504   8.2349   8.8818  10.5174  10.7414  13.5366

          k = 0.5833-0.2500 0.5833 (   164 PWs)   bands (ev):

   -18.7072 -10.9326  -5.2454  -5.0725  -3.7708   3.1450   3.2188   3.8207
     6.9003   8.5168   8.6427   9.3401  10.0897  13.7385

          k = 0.5000-0.1667 0.5000 (   161 PWs)   bands (ev):

   -18.6428 -10.7522  -5.2115  -5.0391  -3.7877   3.0850   3.1834   3.6457
     7.7907   8.1529   9.2886  10.1600  10.8862  14.1322

          k = 0.4167-0.0833 0.4167 (   161 PWs)   bands (ev):

   -18.6808 -10.5389  -5.2055  -4.9870  -3.9368   2.9451   3.1522   3.3638
     8.0799   8.1072   8.9873  10.9064  11.2134  13.2081

          k = 0.3333 0.0000 0.3333 (   160 PWs)   bands (ev):

   -18.7149 -10.2697  -5.1240  -4.9267  -4.1729   2.8575   2.9232   3.0137
     8.3635   8.7693   9.4584  10.9026  11.3845  13.1953

          k = 0.0000 0.5000 0.0000 (   165 PWs)   bands (ev):

   -18.7982 -10.4028  -5.1799  -5.1799  -4.0373   2.7016   2.9874   2.9874
     7.6706   8.0576   8.9967   8.9967  11.0121  11.8993

          k =-0.0833 0.5833-0.0833 (   160 PWs)   bands (ev):

   -18.6444 -10.5619  -5.1688  -5.1232  -3.7545   2.8670   3.3145   3.3158
     7.7654   8.7124   9.2390  10.2767  12.2253  12.4796

          k =-0.1667 0.6667-0.1667 (   161 PWs)   bands (ev):

   -18.6190 -10.7533  -5.2197  -5.1598  -3.6539   2.9527   3.3643   3.5900
     7.2288   8.8252   9.0673   9.5763  12.1753  12.2364

          k = 0.7500-0.2500 0.7500 (   164 PWs)   bands (ev):

   -18.6620 -10.9198  -5.2534  -5.1779  -3.6136   3.0356   3.3969   3.7202
     6.9311   7.8373   8.3642   9.4310  11.8561  12.9308

          k = 0.6667-0.1667 0.6667 (   158 PWs)   bands (ev):

   -18.5331 -10.8869  -5.2329  -5.0797  -3.5190   3.2794   3.4129   3.9162
     7.0142   8.8405   9.9032  10.8161  11.5058  13.7045

          k = 0.5833-0.0833 0.5833 (   165 PWs)   bands (ev):

   -18.6927 -10.9144  -5.3213  -5.1122  -3.6257   3.1144   3.2773   3.7489
     7.0676   7.1330   8.5491  10.3212  10.6095  13.2549

          k = 0.5000 0.0000 0.5000 (   164 PWs)   bands (ev):

   -18.6978 -10.7519  -5.2741  -5.0435  -3.7813   3.0086   3.2695   3.5462
     7.2526   7.5486   8.3691  10.8427  10.9444  13.3416

          k = 0.0000 0.6667 0.0000 (   170 PWs)   bands (ev):

   -18.8065 -10.7913  -5.2648  -5.2648  -3.8018   2.8481   3.2242   3.2242
     6.5427   7.5332   7.5332   7.9382  10.3993  11.3184

          k =-0.0833 0.7500-0.0833 (   166 PWs)   bands (ev):

   -18.6878 -10.8839  -5.2429  -5.2253  -3.6368   2.9180   3.4431   3.5268
     6.7437   7.5545   7.6449   9.6359  11.0580  11.5347

          k = 0.8333-0.1667 0.8333 (   168 PWs)   bands (ev):

   -18.7118 -11.0124  -5.3164  -5.2510  -3.5566   3.0047   3.4871   3.6246
     6.1246   7.3886   7.6173   8.9380  10.9355  11.2923

          k = 0.7500-0.0833 0.7500 (   166 PWs)   bands (ev):

   -18.6680 -11.0017  -5.3227  -5.2502  -3.5027   3.1477   3.3826   3.7933
     6.1944   7.0289   8.8794   9.3841  11.4389  12.0784

          k = 0.6667 0.0000 0.6667 (   172 PWs)   bands (ev):

   -18.8077 -11.0732  -5.4020  -5.2493  -3.5840   3.1648   3.1803   3.7383
     5.1800   6.7664   8.2999   8.8370   9.3327  11.8561

          k = 0.0000 0.8333 0.0000 (   162 PWs)   bands (ev):

   -18.5767 -10.9346  -5.1738  -5.1738  -3.5405   2.9071   3.7736   3.7736
     6.9613   7.9672   7.9672  10.6214  11.1126  12.5819

          k = 0.9167-0.0833 0.9167 (   164 PWs)   bands (ev):

   -18.6114 -11.0168  -5.2413  -5.1985  -3.4929   2.9285   3.7577   3.8258
     6.7959   7.8247   7.9568  10.1997  10.3363  12.2280

          k = 0.8333 0.0000 0.8333 (   170 PWs)   bands (ev):

   -18.7259 -11.0699  -5.3777  -5.2980  -3.5206   3.0129   3.4984   3.7414
     5.8138   6.7748   8.7079   8.9439  10.1438  10.5301

          k = 0.0000-1.0000 0.0000 (   150 PWs)   bands (ev):

   -18.3085 -10.9011  -5.1319  -5.1319  -3.2992   2.9762   4.0411   4.0411
     9.8461   9.9975   9.9975  10.1563  11.7968  13.0072

          k =-0.1667 0.3333 0.0000 (   162 PWs)   bands (ev):

   -18.7925 -10.0806  -5.0917  -4.9908  -4.3657   2.6758   2.8401   2.8667
     7.9752   8.3084   9.6173  10.4865  11.2978  12.8957

          k =-0.2500 0.4167-0.0833 (   161 PWs)   bands (ev):

   -18.7198 -10.3173  -5.1078  -4.9974  -4.1149   2.7972   2.9477   3.1196
     8.3190   8.4481   9.5146  10.0819  11.5960  13.2362

          k =-0.3333 0.5000-0.1667 (   159 PWs)   bands (ev):

   -18.6281 -10.5759  -5.1455  -5.0135  -3.8857   2.9472   3.1399   3.4892
     7.8991   8.7328   9.4810  10.2824  11.8354  13.6844

          k = 0.5833-0.4167 0.7500 (   163 PWs)   bands (ev):

   -18.6897 -10.8273  -5.1860  -5.0648  -3.8461   3.0579   3.2065   3.7254
     7.1047   8.2931   9.0498   9.6961  10.3850  13.8788

          k = 0.5000-0.3333 0.6667 (   166 PWs)   bands (ev):

   -18.7418 -10.9327  -5.2195  -5.0796  -3.8478   3.0773   3.2111   3.8038
     6.8153   7.8418   8.5004   9.2365   9.5348  13.6576

          k =-0.1667 0.5000 0.0000 (   160 PWs)   bands (ev):

   -18.6888 -10.4178  -5.1675  -5.0757  -3.9269   2.8110   3.1215   3.1836
     8.1159   8.3773   9.7781  10.3599  12.1494  12.3182

          k =-0.2500 0.5833-0.0833 (   162 PWs)   bands (ev):

   -18.6698 -10.6402  -5.2143  -5.1125  -3.7603   2.8939   3.2341   3.4483
     7.8092   8.4620   8.9889   9.4940  12.3089  12.5440

          k = 0.6667-0.3333 0.8333 (   163 PWs)   bands (ev):

   -18.6600 -10.8339  -5.2594  -5.0908  -3.7157   3.0405   3.3333   3.6535
     7.1001   7.6795   9.0075  10.1132  11.3721  13.2190

          k = 0.5833-0.2500 0.7500 (   166 PWs)   bands (ev):

   -18.7180 -10.9660  -5.2903  -5.1262  -3.6833   3.1126   3.2982   3.7912
     6.5831   7.6987   8.6998   9.6138  10.1109  12.9332

          k = 0.5000-0.1667 0.6667 (   165 PWs)   bands (ev):

   -18.6999 -10.9245  -5.3002  -5.1093  -3.6934   3.1431   3.2462   3.7620
     6.7052   7.9505   8.8877   9.7715  10.2170  13.0060

          k = 0.4167-0.0833 0.5833 (   163 PWs)   bands (ev):

   -18.6808 -10.7822  -5.2863  -5.0627  -3.7542   3.0411   3.2389   3.5967
     7.3387   8.0127   8.4599  10.2905  11.4309  13.2993

          k = 0.3333 0.0000 0.5000 (   158 PWs)   bands (ev):

   -18.6171 -10.5299  -5.1565  -4.9924  -3.8289   2.9410   3.2784   3.3724
     8.1143   8.7434   9.6889  10.7188  12.4081  13.3818

          k =-0.1667 0.6667-0.0000 (   162 PWs)   bands (ev):

   -18.6360 -10.7448  -5.1983  -5.1724  -3.6454   2.9318   3.4350   3.5152
     6.9480   8.5321   9.0517   9.4935  11.8381  12.2894

          k = 0.7500-0.2500 0.9167 (   163 PWs)   bands (ev):

   -18.6331 -10.9049  -5.2807  -5.2077  -3.5350   3.0490   3.4707   3.6891
     7.3871   7.9211   8.4166   9.4409  11.4545  12.3297

          k = 0.6667-0.1667 0.8333 (   165 PWs)   bands (ev):

   -18.6745 -11.0084  -5.3295  -5.1813  -3.5138   3.1629   3.4137   3.7993
     6.7858   7.5407   8.2910   9.7905  11.6825  12.0977

          k = 0.5833-0.0833 0.7500 (   165 PWs)   bands (ev):

   -18.6670 -10.9912  -5.3453  -5.1771  -3.5160   3.2428   3.3163   3.8200
     6.3329   7.3136   9.6146  10.0539  10.4317  12.4187

          k = 0.5000 0.0000 0.6667 (   165 PWs)   bands (ev):

   -18.6880 -10.9307  -5.3459  -5.1363  -3.5993   3.0925   3.3291   3.7033
     6.9231   7.1563   8.5101  10.1517  10.6104  12.7673

          k = 0.8333-0.1667 1.0000 (   164 PWs)   bands (ev):

   -18.6241 -10.9668  -5.2363  -5.1984  -3.5311   2.9636   3.6462   3.7289
     6.9106   7.7460   8.0119  10.4386  10.7122  12.1201

          k = 0.7500-0.0833 0.9167 (   167 PWs)   bands (ev):

   -18.6711 -11.0363  -5.3320  -5.2503  -3.4883   3.0520   3.6220   3.7164
     6.1942   6.9101   8.8672   9.4754  10.6089  11.3130

          k = 0.6667 0.0000 0.8333 (   164 PWs)   bands (ev):

   -18.6219 -11.0277  -5.3476  -5.1974  -3.4387   3.1944   3.5761   3.7960
     5.7377   7.6963   9.8230   9.9988  10.9205  12.1629

          k =-0.1667-1.0000 0.0000 (   164 PWs)   bands (ev):

   -18.6004 -11.0085  -5.3014  -5.2017  -3.4779   2.9809   3.7015   3.8758
     6.8404   6.8815   9.7850   9.8756  10.3943  11.4400

          k = 0.6667-0.3333 1.0000 (   163 PWs)   bands (ev):

   -18.6610 -10.8310  -5.2895  -5.1099  -3.6841   3.0041   3.4126   3.5963
     7.3865   7.9034   8.0323  10.1879  12.1719  13.0078

          k = 0.5833-0.2500 0.9167 (   163 PWs)   bands (ev):

   -18.6366 -10.9469  -5.3093  -5.1252  -3.5537   3.1821   3.4229   3.7539
     6.9702   7.5497   8.4345  10.2729  11.7251  12.7369

          k = 0.5000-0.1667 0.8333 (   162 PWs)   bands (ev):

   -18.6115 -10.9888  -5.2866  -5.1506  -3.4750   3.3075   3.4237   3.8261
     6.5759   7.5748   9.6817  10.1663  10.7455  12.7266

          k = 0.6667-0.1667 1.0000 (   164 PWs)   bands (ev):

   -18.6398 -11.0080  -5.3040  -5.1854  -3.4856   3.1519   3.5266   3.7632
     6.3911   7.3347   8.4285  10.1042  11.8492  12.3753

          k = 0.5833-0.0833 0.9167 (   163 PWs)   bands (ev):

   -18.6023 -11.0125  -5.3379  -5.1644  -3.4264   3.3001   3.5025   3.8667
     6.0284   7.2482   9.9242  10.1889  11.7247  12.4365

          k = 0.5000 0.0000 0.8333 (   162 PWs)   bands (ev):

   -18.5845 -10.9853  -5.3257  -5.1364  -3.4369   3.3755   3.4113   3.8617
     6.1346   7.3556   9.9303  10.1568  11.7416  12.5264

          k =-0.3333-1.0000 0.0000 (   162 PWs)   bands (ev):

   -18.5663 -10.9981  -5.2445  -5.2385  -3.4169   3.1907   3.6890   3.7212
     6.5362   6.7446  10.4134  10.9582  11.1109  12.2194

          k =-0.5000-1.0000 0.0000 (   156 PWs)   bands (ev):

   -18.4388 -10.9249  -5.2675  -5.1231  -3.3325   3.4396   3.5378   3.9861
     7.3820   7.7201  11.2419  11.6015  12.8176  13.3951

     highest occupied level (ev):    14.9865

!    total energy              =    -270.46770569 Ry
     estimated scf accuracy    <          3.3E-10 Ry

     The total energy is the sum of the following terms:
     one-electron contribution =     -46.16775985 Ry
     hartree contribution      =      45.01029405 Ry
     xc contribution           =     -70.95843480 Ry
     ewald contribution        =    -198.35180508 Ry

     convergence has been achieved in  25 iterations

     Forces acting on atoms (cartesian axes, Ry/au):

     atom    1 type  1   force =     0.00000000    0.00000000   -0.00000000
     atom    2 type  2   force =     0.00000000    0.00000000   -0.00000000

     Total force =     0.000000     Total SCF correction =     0.000000


     Computing stress (Cartesian axis) and pressure

          total   stress  (Ry/bohr**3)                   (kbar)     P=    -9046.40
  -0.06149616  -0.00000000  -0.00000000        -9046.40       -0.00       -0.00
  -0.00000000  -0.06149616  -0.00000000           -0.00    -9046.40       -0.00
  -0.00000000  -0.00000000  -0.06149616           -0.00       -0.00    -9046.40


     BFGS Geometry Optimization
     Energy error            =      1.6E+02 Ry
     Gradient error          =      3.9E-31 Ry/Bohr
     Cell gradient error     =      9.0E+03 kbar

     number of scf cycles    =   1
     number of bfgs steps    =   0

     enthalpy           new  =    -270.4677056883 Ry

     new trust radius        =       0.5000000000 bohr
     new conv_thr            =       0.0000000010 Ry

     new unit-cell volume =    191.78606 a.u.^3 (    28.41976 Ang^3 )
     density =      8.45141 g/cm^3

CELL_PARAMETERS (alat= 10.68400000)
  -0.428412171   0.000000000   0.428412171
  -0.000000000   0.428412171   0.428412171
  -0.428412171   0.428412171   0.000000000

ATOMIC_POSITIONS (crystal)
Ga              -0.0000000000       -0.0000000000        0.0000000000
As               0.2500000000        0.2500000000        0.2500000000



     Writing config-only to output data dir /home/sachs/software/q-e/tempdir/gaasGGA.save/ :
     XML data file
     NEW-OLD atomic charge density approx. for the potential
     New effective cutoffs (rho, wfc):  815.94   13.62

     negative rho (up, down):  2.236E+00 0.000E+00

     total cpu time spent up to now is       10.5 secs

     per-process dynamical memory:    14.7 Mb

     Self-consistent Calculation

     iteration #  1     ecut=    10.00 Ry     beta= 0.30
     CG style diagonalization
     c_bands:  2 eigenvalues not converged
     c_bands:  2 eigenvalues not converged
     c_bands:  2 eigenvalues not converged
     c_bands:  1 eigenvalues not converged
     c_bands:  3 eigenvalues not converged
     c_bands:  3 eigenvalues not converged
     c_bands:  2 eigenvalues not converged
     c_bands:  1 eigenvalues not converged
     c_bands:  3 eigenvalues not converged
     c_bands:  4 eigenvalues not converged
     c_bands:  2 eigenvalues not converged
     c_bands:  2 eigenvalues not converged
     c_bands:  3 eigenvalues not converged
     c_bands:  2 eigenvalues not converged
     c_bands:  3 eigenvalues not converged
     c_bands:  3 eigenvalues not converged
     c_bands:  3 eigenvalues not converged
     c_bands:  2 eigenvalues not converged
     c_bands:  4 eigenvalues not converged
     ethr =  1.00E-06,  avg # of iterations = 18.5

     negative rho (up, down):  1.315E+00 0.000E+00

     total cpu time spent up to now is       12.2 secs

     total energy              =    -282.36883040 Ry
     estimated scf accuracy    <       3.23398686 Ry

     iteration #  2     ecut=    10.00 Ry     beta= 0.30
     CG style diagonalization
     ethr =  1.00E-02,  avg # of iterations =  3.0

     negative rho (up, down):  8.722E-02 0.000E+00

     total cpu time spent up to now is       12.5 secs

     total energy              =    -281.44040176 Ry
     estimated scf accuracy    <       1.49175951 Ry

     iteration #  3     ecut=    10.00 Ry     beta= 0.30
     CG style diagonalization
     ethr =  5.33E-03,  avg # of iterations =  3.1

     negative rho (up, down):  1.592E-02 0.000E+00

     total cpu time spent up to now is       12.7 secs

     total energy              =    -281.54078880 Ry
     estimated scf accuracy    <       0.04154308 Ry

     iteration #  4     ecut=    10.00 Ry     beta= 0.30
     CG style diagonalization
     ethr =  1.48E-04,  avg # of iterations =  4.2

     negative rho (up, down):  4.287E-03 0.000E+00

     total cpu time spent up to now is       13.1 secs

     total energy              =    -281.59645938 Ry
     estimated scf accuracy    <       0.00178617 Ry

     iteration #  5     ecut=    10.00 Ry     beta= 0.30
     CG style diagonalization
     ethr =  6.38E-06,  avg # of iterations =  4.9

     negative rho (up, down):  1.375E-03 0.000E+00

     total cpu time spent up to now is       13.5 secs

     total energy              =    -281.62400243 Ry
     estimated scf accuracy    <       0.00142639 Ry

     iteration #  6     ecut=    10.00 Ry     beta= 0.30
     CG style diagonalization
     ethr =  5.09E-06,  avg # of iterations =  3.9

     negative rho (up, down):  3.138E-04 0.000E+00

     total cpu time spent up to now is       13.8 secs

     total energy              =    -281.63863148 Ry
     estimated scf accuracy    <       0.00138204 Ry

     iteration #  7     ecut=    10.00 Ry     beta= 0.30
     CG style diagonalization
     ethr =  4.94E-06,  avg # of iterations =  3.8

     negative rho (up, down):  3.659E-05 0.000E+00

     total cpu time spent up to now is       14.1 secs

     total energy              =    -281.65030537 Ry
     estimated scf accuracy    <       0.00002468 Ry

     iteration #  8     ecut=    10.00 Ry     beta= 0.30
     CG style diagonalization
     ethr =  8.81E-08,  avg # of iterations =  5.2

     total cpu time spent up to now is       14.5 secs

     total energy              =    -281.66220696 Ry
     estimated scf accuracy    <       0.00005418 Ry

     iteration #  9     ecut=    10.00 Ry     beta= 0.30
     CG style diagonalization
     ethr =  8.81E-08,  avg # of iterations =  4.3

     total cpu time spent up to now is       14.9 secs

     total energy              =    -281.66607494 Ry
     estimated scf accuracy    <       0.00010411 Ry

     iteration # 10     ecut=    10.00 Ry     beta= 0.30
     CG style diagonalization
     ethr =  8.81E-08,  avg # of iterations =  4.6

     total cpu time spent up to now is       15.2 secs

     total energy              =    -281.66811301 Ry
     estimated scf accuracy    <       0.00008086 Ry

     iteration # 11     ecut=    10.00 Ry     beta= 0.30
     CG style diagonalization
     ethr =  8.81E-08,  avg # of iterations =  4.0

     total cpu time spent up to now is       15.6 secs

     total energy              =    -281.66918237 Ry
     estimated scf accuracy    <       0.00002498 Ry

     iteration # 12     ecut=    10.00 Ry     beta= 0.30
     CG style diagonalization
     ethr =  8.81E-08,  avg # of iterations =  3.1

     total cpu time spent up to now is       15.8 secs

     total energy              =    -281.66974393 Ry
     estimated scf accuracy    <       0.00002508 Ry

     iteration # 13     ecut=    10.00 Ry     beta= 0.30
     CG style diagonalization
     ethr =  8.81E-08,  avg # of iterations =  3.0

     total cpu time spent up to now is       16.1 secs

     total energy              =    -281.67003210 Ry
     estimated scf accuracy    <       0.00002106 Ry

     iteration # 14     ecut=    10.00 Ry     beta= 0.30
     CG style diagonalization
     ethr =  7.52E-08,  avg # of iterations =  3.1

     total cpu time spent up to now is       16.3 secs

     total energy              =    -281.67018304 Ry
     estimated scf accuracy    <       0.00000284 Ry

     iteration # 15     ecut=    10.00 Ry     beta= 0.30
     CG style diagonalization
     c_bands:  1 eigenvalues not converged
     ethr =  1.01E-08,  avg # of iterations =  5.1

     total cpu time spent up to now is       16.7 secs

     total energy              =    -281.67373719 Ry
     estimated scf accuracy    <       0.00000684 Ry

     iteration # 16     ecut=    10.00 Ry     beta= 0.30
     CG style diagonalization
     ethr =  1.01E-08,  avg # of iterations =  4.0

     total cpu time spent up to now is       17.1 secs

     total energy              =    -281.67378410 Ry
     estimated scf accuracy    <       0.00000224 Ry

     iteration # 17     ecut=    10.00 Ry     beta= 0.30
     CG style diagonalization
     ethr =  8.02E-09,  avg # of iterations =  3.0

     total cpu time spent up to now is       17.3 secs

     total energy              =    -281.67380066 Ry
     estimated scf accuracy    <       0.00000156 Ry

     iteration # 18     ecut=    10.00 Ry     beta= 0.30
     CG style diagonalization
     ethr =  5.57E-09,  avg # of iterations =  3.7

     total cpu time spent up to now is       17.6 secs

     total energy              =    -281.67380883 Ry
     estimated scf accuracy    <       0.00000105 Ry

     iteration # 19     ecut=    10.00 Ry     beta= 0.30
     CG style diagonalization
     c_bands:  1 eigenvalues not converged
     ethr =  3.73E-09,  avg # of iterations =  3.7

     total cpu time spent up to now is       17.9 secs

     total energy              =    -281.67564964 Ry
     estimated scf accuracy    <       0.00000126 Ry

     iteration # 20     ecut=    10.00 Ry     beta= 0.30
     CG style diagonalization
     ethr =  3.73E-09,  avg # of iterations =  3.0

     total cpu time spent up to now is       18.2 secs

     total energy              =    -281.67565200 Ry
     estimated scf accuracy    <       0.00000138 Ry

     iteration # 21     ecut=    10.00 Ry     beta= 0.30
     CG style diagonalization
     ethr =  3.73E-09,  avg # of iterations =  3.0

     total cpu time spent up to now is       18.4 secs

     total energy              =    -281.67565303 Ry
     estimated scf accuracy    <       0.00000134 Ry

     iteration # 22     ecut=    10.00 Ry     beta= 0.30
     CG style diagonalization
     ethr =  3.73E-09,  avg # of iterations =  3.0

     total cpu time spent up to now is       18.7 secs

     total energy              =    -281.67565292 Ry
     estimated scf accuracy    <       0.00000122 Ry

     iteration # 23     ecut=    10.00 Ry     beta= 0.30
     CG style diagonalization
     ethr =  3.73E-09,  avg # of iterations =  4.4

     total cpu time spent up to now is       19.0 secs

     total energy              =    -281.67565347 Ry
     estimated scf accuracy    <       0.00000057 Ry

     iteration # 24     ecut=    10.00 Ry     beta= 0.30
     CG style diagonalization
     ethr =  2.05E-09,  avg # of iterations =  3.6

     total cpu time spent up to now is       19.3 secs

     total energy              =    -281.67565367 Ry
     estimated scf accuracy    <       0.00000003 Ry

     iteration # 25     ecut=    10.00 Ry     beta= 0.30
     CG style diagonalization
     c_bands:  1 eigenvalues not converged
     ethr =  1.18E-10,  avg # of iterations =  4.5

     total cpu time spent up to now is       19.7 secs

     total energy              =    -281.67749397 Ry
     estimated scf accuracy    <       0.00000097 Ry

     iteration # 26     ecut=    10.00 Ry     beta= 0.30
     CG style diagonalization
     ethr =  1.18E-10,  avg # of iterations =  3.0

     total cpu time spent up to now is       20.0 secs

     total energy              =    -281.67749388 Ry
     estimated scf accuracy    <       0.00000107 Ry

     iteration # 27     ecut=    10.00 Ry     beta= 0.30
     CG style diagonalization
     ethr =  1.18E-10,  avg # of iterations =  3.9

     total cpu time spent up to now is       20.3 secs

     total energy              =    -281.67749392 Ry
     estimated scf accuracy    <       0.00000078 Ry

     iteration # 28     ecut=    10.00 Ry     beta= 0.30
     CG style diagonalization
     ethr =  1.18E-10,  avg # of iterations =  3.0

     total cpu time spent up to now is       20.5 secs

     total energy              =    -281.67749403 Ry
     estimated scf accuracy    <       0.00000081 Ry

     iteration # 29     ecut=    10.00 Ry     beta= 0.30
     CG style diagonalization
     ethr =  1.18E-10,  avg # of iterations =  3.7

     total cpu time spent up to now is       20.8 secs

     total energy              =    -281.67749408 Ry
     estimated scf accuracy    <       0.00000111 Ry

     iteration # 30     ecut=    10.00 Ry     beta= 0.30
     CG style diagonalization
     ethr =  1.18E-10,  avg # of iterations =  3.4

     total cpu time spent up to now is       21.1 secs

     total energy              =    -281.67749417 Ry
     estimated scf accuracy    <       0.00000123 Ry

     iteration # 31     ecut=    10.00 Ry     beta= 0.30
     CG style diagonalization
     ethr =  1.18E-10,  avg # of iterations =  3.2

     total cpu time spent up to now is       21.4 secs

     total energy              =    -281.67749421 Ry
     estimated scf accuracy    <       0.00000149 Ry

     iteration # 32     ecut=    10.00 Ry     beta= 0.30
     CG style diagonalization
     ethr =  1.18E-10,  avg # of iterations =  3.0

     total cpu time spent up to now is       21.6 secs

     total energy              =    -281.67749421 Ry
     estimated scf accuracy    <       0.00000159 Ry

     iteration # 33     ecut=    10.00 Ry     beta= 0.30
     CG style diagonalization
     ethr =  1.18E-10,  avg # of iterations =  3.0

     total cpu time spent up to now is       21.9 secs

     total energy              =    -281.67749350 Ry
     estimated scf accuracy    <       0.00000161 Ry

     iteration # 34     ecut=    10.00 Ry     beta= 0.30
     CG style diagonalization
     ethr =  1.18E-10,  avg # of iterations =  6.0

     total cpu time spent up to now is       22.3 secs

     total energy              =    -281.67749366 Ry
     estimated scf accuracy    <          9.4E-09 Ry

     iteration # 35     ecut=    10.00 Ry     beta= 0.30
     CG style diagonalization
     ethr =  3.34E-11,  avg # of iterations =  5.1

     total cpu time spent up to now is       22.8 secs

     total energy              =    -281.67749365 Ry
     estimated scf accuracy    <       0.00000006 Ry

     iteration # 36     ecut=    10.00 Ry     beta= 0.30
     CG style diagonalization
     ethr =  3.34E-11,  avg # of iterations =  4.7

     total cpu time spent up to now is       23.1 secs

     End of self-consistent calculation

          k = 0.0000 0.0000 0.0000 (   169 PWs)   bands (ev):

    -8.0179   4.6586   4.6586   4.6586   6.6274   7.3139   7.3139  10.2908
    10.2908  10.2908  14.5056  16.3764  16.3764  16.3764

          k =-0.0973 0.0973-0.0973 (   169 PWs)   bands (ev):

    -7.9461   4.0077   4.6842   4.6842   7.3351   7.3697   7.3697  10.2329
    10.2979  10.2979  14.5552  14.5552  16.3487  16.3640

          k =-0.1945 0.1945-0.1945 (   165 PWs)   bands (ev):

    -7.6969   3.2099   4.7639   4.7639   8.2736   8.2736   8.8417  10.3713
    10.3713  10.7407  15.6963  15.6963  16.8429  17.1829

          k =-0.2918 0.2918-0.2918 (   162 PWs)   bands (ev):

    -7.3658   2.0074   4.5236   4.5236   9.5466   9.5466   9.8282  10.5072
    11.1979  11.1979  15.7474  15.7474  16.6657  18.0870

          k =-0.3890 0.3890-0.3890 (   153 PWs)   bands (ev):

    -6.9351   1.3274   5.0460   5.0460  10.0835  10.6402  10.6402  12.0173
    12.0173  13.5042  17.1833  17.1833  18.4909  19.1884

          k =-0.4863 0.4863-0.4863 (   162 PWs)   bands (ev):

    -6.8712  -0.0907   4.9270   4.9270   7.3233  10.1283  10.1283  11.2512
    11.2512  12.2474  15.3733  15.3733  17.4738  18.6606

          k = 0.5836-0.5836 0.5836 (   168 PWs)   bands (ev):

    -6.8532  -0.3544   3.4800   3.4800   7.2147   9.2006   9.2006  10.0411
    10.0411  12.4539  14.8937  14.8937  17.3806  17.9574

          k = 0.0000 0.1945 0.0000 (   169 PWs)   bands (ev):

    -7.9218   3.8426   4.6944   4.6944   7.3146   7.4309   7.5483  10.1333
    10.3423  10.3423  14.4791  14.6597  16.3368  16.3368

          k =-0.0973 0.2918-0.0973 (   164 PWs)   bands (ev):

    -7.7162   3.1122   4.9042   4.9241   7.5987   8.6218   9.8318  10.4547
    10.6525  10.8107  14.5067  16.4150  16.4177  17.1196

          k =-0.1945 0.3890-0.1945 (   160 PWs)   bands (ev):

    -7.3873   2.2488   4.7645   4.9170   9.4451   9.7228  10.0307  10.5826
    11.2426  11.2731  16.0668  16.3445  17.1584  17.2538

          k =-0.2918 0.4863-0.2918 (   156 PWs)   bands (ev):

    -7.0313   1.4694   4.8146   5.0193   9.8621   9.9079  10.1894  11.6875
    11.7792  13.0215  16.3752  16.8637  18.2752  18.5261

          k =-0.3890 0.5836-0.3890 (   160 PWs)   bands (ev):

    -6.8199   0.3344   4.5999   4.9636   8.1419  10.0242  10.4808  11.5734
    11.6088  12.6896  15.5475  15.9388  17.9393  18.9378

          k = 0.6808-0.4863 0.6808 (   164 PWs)   bands (ev):

    -6.7680  -0.3798   4.5080   4.6667   7.2822   9.7286   9.8671  10.4235
    11.1268  12.6457  15.0681  15.3530  17.4118  18.4497

          k = 0.5836-0.3890 0.5836 (   162 PWs)   bands (ev):

    -6.7764  -0.2934   4.9222   4.9971   7.3220  10.1430  10.1781  11.1737
    11.2031  12.6113  15.3671  15.4898  17.4433  18.6752

          k = 0.4863-0.2918 0.4863 (   161 PWs)   bands (ev):

    -6.9082   0.6364   4.5013   4.7761   8.2995  10.0212  10.0698  11.1783
    11.3721  12.6725  14.9440  15.8799  18.0064  18.6550

          k = 0.3890-0.1945 0.3890 (   157 PWs)   bands (ev):

    -7.1546   1.7054   4.6399   4.9251  10.0013  10.1489  10.2612  11.6417
    11.7786  12.2797  16.1312  16.5580  17.7504  18.4277

          k = 0.2918-0.0973 0.2918 (   159 PWs)   bands (ev):

    -7.4824   2.6256   4.7901   4.9499   9.2134   9.8322  10.4975  10.5270
    11.1840  11.4928  16.2054  16.6463  16.8345  17.6995

          k = 0.1945-0.0000 0.1945 (   163 PWs)   bands (ev):

    -7.7641   3.5918   4.7363   5.0630   8.1388   8.4297   9.1674  10.4087
    10.7439  11.0106  15.2874  16.4281  17.1838  17.2100

          k = 0.0000 0.3890 0.0000 (   161 PWs)   bands (ev):

    -7.5692   2.6764   5.2220   5.2220   7.7793   9.3199   9.7647  10.6640
    11.0766  11.0766  14.4043  16.9947  17.5241  17.5241

          k =-0.0973 0.4863-0.0973 (   162 PWs)   bands (ev):

    -7.3435   1.9953   4.7137   4.7859   8.7296   9.4524  10.0144  10.6722
    10.7359  11.1180  14.9958  16.2153  17.1338  17.1339

          k =-0.1945 0.5836-0.1945 (   159 PWs)   bands (ev):

    -6.9971   1.2719   4.9851   5.0084   9.4666   9.7412  10.2303  11.3634
    11.4776  12.2699  15.7094  16.6482  17.2405  17.6262

          k =-0.2918 0.6808-0.2918 (   160 PWs)   bands (ev):

    -6.7278   0.4144   4.6053   5.1041   8.3435   9.3515   9.9812  11.4032
    11.6612  13.1520  15.8800  16.3396  18.1053  18.3907

          k = 0.7781-0.3890 0.7781 (   162 PWs)   bands (ev):

    -6.5995  -0.2510   4.4559   5.0541   7.5733   8.6929  10.3539  11.4107
    11.9580  13.3050  15.2339  15.5172  17.7310  19.4966

          k = 0.6808-0.2918 0.6808 (   164 PWs)   bands (ev):

    -6.6634  -0.5216   4.6151   4.9350   7.2876   8.9380  10.2993  10.5489
    11.2961  13.1073  14.5911  15.3446  17.4634  18.4739

          k = 0.5836-0.1945 0.5836 (   161 PWs)   bands (ev):

    -6.7069   0.1479   4.5165   4.8693   8.3674  10.0149  10.0478  11.2006
    11.3156  13.1729  14.9058  16.0876  18.1139  18.5470

          k = 0.4863-0.0973 0.4863 (   161 PWs)   bands (ev):

    -6.9623   0.9504   4.5405   4.8976   9.0913   9.5394   9.9400  10.7003
    11.5798  12.4317  15.8468  15.8584  16.9764  18.0791

          k = 0.3890 0.0000 0.3890 (   160 PWs)   bands (ev):

    -7.2500   1.7721   4.7842   5.0229   9.0392  10.0416  10.4637  10.8147
    11.4159  11.5960  15.5330  16.6664  16.6722  17.2917

          k = 0.0000 0.5836 0.0000 (   165 PWs)   bands (ev):

    -7.2216   1.4086   4.3911   4.3911   8.1356   9.2732  10.0541  10.5467
    10.5467  11.4203  12.3588  16.4367  16.4367  17.0546

          k =-0.0973 0.6808-0.0973 (   160 PWs)   bands (ev):

    -6.8647   0.8767   4.4161   5.1961   8.7626   9.9690  10.0120  10.7020
    12.0803  12.6036  14.2267  16.8160  17.1441  17.7859

          k =-0.1945 0.7781-0.1945 (   161 PWs)   bands (ev):

    -6.6026   0.3233   4.6904   4.7826   7.6798   9.4277   9.9305  11.1640
    11.4506  13.9782  14.4089  16.5315  17.0423  18.0894

          k = 0.8753-0.2918 0.8753 (   164 PWs)   bands (ev):

    -6.4798  -0.3391   4.1474   4.7688   7.7913   8.1073   9.1772  11.2328
    11.4218  14.2400  14.9133  15.5817  17.0282  17.5850

          k = 0.7781-0.1945 0.7781 (   158 PWs)   bands (ev):

    -6.3024  -0.4112   4.7502   5.0550   7.7507   9.8285  10.7364  12.0070
    12.3615  14.6502  15.8048  15.9747  18.4607  18.5993

          k = 0.6808-0.0973 0.6808 (   165 PWs)   bands (ev):

    -6.5541  -0.3702   3.6081   4.7889   7.9062   9.3243   9.4788  10.0675
    11.5281  13.5688  14.6796  15.6792  17.2709  17.5383

          k = 0.5836 0.0000 0.5836 (   164 PWs)   bands (ev):

    -6.7441   0.1289   3.8450   4.8303   8.4934   9.1596   9.4275  10.0229
    11.8146  13.0591  15.4386  15.6908  16.9554  17.7245

          k = 0.0000 0.7781 0.0000 (   170 PWs)   bands (ev):

    -6.8158   0.2742   3.7051   3.7051   6.5130   8.3868   9.3369   9.3369
     9.5902  11.6824  13.0986  16.3893  16.3893  16.7318

          k =-0.0973 0.8753-0.0973 (   166 PWs)   bands (ev):

    -6.5061  -0.1112   3.9197   4.0376   6.6785   9.1306   9.1615   9.9651
    11.0941  13.4268  14.0498  16.5230  16.7690  17.1533

          k = 0.9726-0.1945 0.9726 (   168 PWs)   bands (ev):

    -6.3812  -0.5040   3.5440   3.9255   6.7468   8.0175   8.7849  10.2267
    10.3751  13.1858  15.0377  15.8823  16.2160  17.5821

          k = 0.8753-0.0973 0.8753 (   166 PWs)   bands (ev):

    -6.3110  -0.6233   3.5285   4.0061   7.2022   8.9321   9.0294   9.9373
    11.6397  13.9485  15.5506  15.7200  15.9221  18.5453

          k = 0.7781 0.0000 0.7781 (   172 PWs)   bands (ev):

    -6.5396  -0.7872   3.2079   3.4087   6.3589   8.2842   8.3427   9.7778
     9.8425  13.2626  13.8432  15.0796  15.6139  17.7053

          k = 0.0000 0.9726 0.0000 (   162 PWs)   bands (ev):

    -6.2275  -0.3744   4.3929   4.3929   6.6820   9.4556   9.9396   9.9396
    12.9678  14.8792  15.0840  16.9131  16.9131  17.6326

          k = 1.0698-0.0973 1.0698 (   164 PWs)   bands (ev):

    -6.1571  -0.6050   4.0135   4.4531   6.8388   8.5870   9.9160  10.0774
    11.5826  14.5902  15.7051  16.3477  16.8231  18.2530

          k = 0.9726 0.0000 0.9726 (   170 PWs)   bands (ev):

    -6.2602  -0.7321   3.4212   3.5371   6.9581   8.2118   8.9971   9.3091
    10.4328  12.0993  15.2160  15.8145  16.0749  18.1372

          k = 0.0000-1.1671 0.0000 (   150 PWs)   bands (ev):

    -5.7931  -0.5167   5.2876   5.2876   9.1302   9.9777  12.2361  12.2361
    13.9616  15.8136  16.7188  18.3770  18.3770  19.2475

          k =-0.1945 0.3890-0.0000 (   162 PWs)   bands (ev):

    -7.4968   2.4595   4.7266   4.9521   8.5640   9.4573   9.9054  10.5246
    10.8973  11.1645  15.0033  16.4516  16.6802  17.2498

          k =-0.2918 0.4863-0.0973 (   161 PWs)   bands (ev):

    -7.1966   1.6377   4.6285   4.8333   9.3157   9.8506  10.0959  10.9326
    10.9875  11.5961  15.6465  16.2508  16.7158  17.3777

          k =-0.3890 0.5836-0.1945 (   159 PWs)   bands (ev):

    -6.8633   0.8263   4.5465   5.0242   9.1877   9.3805  10.3802  11.2399
    11.7892  12.9263  15.9026  16.1553  17.7307  18.3651

          k = 0.6808-0.4863 0.8753 (   163 PWs)   bands (ev):

    -6.7353  -0.1706   4.5245   4.9928   7.4073   9.2839  10.1809  11.1239
    11.2362  12.9664  14.9863  15.4940  17.7691  18.3315

          k = 0.5836-0.3890 0.7781 (   166 PWs)   bands (ev):

    -6.7127  -0.5102   4.5395   4.8258   7.1919   8.1672   9.6967  10.3976
    10.8948  12.9212  14.2015  14.8184  17.4366  18.2730

          k =-0.1945 0.5836 0.0000 (   160 PWs)   bands (ev):

    -7.0848   1.3558   4.7607   5.2276   8.9320   9.5123  10.3828  11.0081
    11.4281  11.9465  14.0963  16.8399  17.4508  17.4764

          k =-0.2918 0.6808-0.0973 (   162 PWs)   bands (ev):

    -6.8074   0.6748   4.3561   4.9957   8.9190   9.4889   9.6321  10.5917
    11.2704  12.9983  14.7718  16.1021  17.0735  17.8717

          k = 0.7781-0.3890 0.9726 (   163 PWs)   bands (ev):

    -6.5974  -0.0746   4.2363   4.9234   7.8430   8.2684  10.4634  10.7829
    11.4656  13.5303  15.1365  15.7621  17.4331  18.0319

          k = 0.6808-0.2918 0.8753 (   166 PWs)   bands (ev):

    -6.5720  -0.5726   4.1977   4.6696   7.3145   8.1672   9.8986  10.6833
    11.0682  13.4286  14.6743  14.8857  17.0765  17.7726

          k = 0.5836-0.1945 0.7781 (   165 PWs)   bands (ev):

    -6.5860  -0.4806   4.3079   4.6854   7.3689   8.7811   9.9951  10.6534
    11.1298  13.4380  14.7051  15.4061  17.2615  18.1214

          k = 0.4863-0.0973 0.6808 (   163 PWs)   bands (ev):

    -6.7048   0.0980   4.1911   4.8372   8.3989   9.0545   9.8013  10.2353
    11.6682  13.2881  15.2586  15.7608  17.0276  18.3286

          k = 0.3890 0.0000 0.5836 (   158 PWs)   bands (ev):

    -6.8825   1.0367   4.4354   5.1910   9.5888  10.1040  10.2994  11.0320
    11.9948  12.8796  16.1011  16.5974  17.1211  18.6120

          k =-0.1945 0.7781-0.0000 (   162 PWs)   bands (ev):

    -6.6221   0.3039   4.5620   4.7312   7.5684   9.2157  10.3103  10.8529
    11.2573  13.4582  13.9652  16.6772  16.9625  17.6157

          k = 0.8753-0.2918 1.0698 (   163 PWs)   bands (ev):

    -6.4285  -0.1890   4.4562   4.7449   7.6646   8.5962   9.7169  10.5814
    11.4730  13.4545  14.6921  16.1576  16.9148  18.1528

          k = 0.7781-0.1945 0.9726 (   165 PWs)   bands (ev):

    -6.3812  -0.6038   4.2093   4.3442   7.7333   7.9686   9.6673  10.7264
    11.6864  13.7563  14.9416  15.6478  16.1477  17.6409

          k = 0.6808-0.0973 0.8753 (   165 PWs)   bands (ev):

    -6.3830  -0.6340   3.9384   4.4933   7.1254   8.5413  10.1557  10.9289
    11.4794  13.7804  14.7764  15.6242  16.6825  18.3571

          k = 0.5836 0.0000 0.7781 (   165 PWs)   bands (ev):

    -6.5141  -0.3656   3.5729   4.7886   7.9149   8.3862   9.8695  10.1590
    11.2684  13.5187  14.7529  15.5407  17.3655  17.8967

          k = 0.9726-0.1945 1.1671 (   164 PWs)   bands (ev):

    -6.2871  -0.4198   4.0169   4.4929   6.8739   8.8720   9.3902  10.4462
    12.0512  14.2844  15.1699  16.2960  16.8838  17.8547

          k = 0.8753-0.0973 1.0698 (   167 PWs)   bands (ev):

    -6.2394  -0.6608   3.7762   3.9416   7.0480   7.8414   9.7373  10.1751
    10.8208  13.2513  15.5152  15.6550  16.0193  18.8149

          k = 0.7781 0.0000 0.9726 (   164 PWs)   bands (ev):

    -6.2052  -0.6714   3.7741   4.4324   6.8433   8.2703  10.2682  11.0853
    11.5697  14.1124  15.2537  16.1547  16.2370  19.3790

          k =-0.1945-1.1671 0.0000 (   164 PWs)   bands (ev):

    -6.1255  -0.6922   4.0011   4.1408   7.6394   8.2108  10.0564  10.6804
    11.3377  13.4826  15.9389  16.1039  16.5586  18.8542

          k = 0.7781-0.3890 1.1671 (   163 PWs)   bands (ev):

    -6.5878  -0.0721   4.1751   4.8454   8.3078   8.5615   9.5139  10.7401
    11.4315  14.0181  15.3298  15.9218  17.0747  17.9904

          k = 0.6808-0.2918 1.0698 (   163 PWs)   bands (ev):

    -6.4039  -0.4719   4.3175   4.6360   7.8463   8.1668   9.8473  10.8797
    11.6669  14.2596  15.3650  15.6836  17.1125  18.4092

          k = 0.5836-0.1945 0.9726 (   162 PWs)   bands (ev):

    -6.3265  -0.6273   4.5018   4.5790   7.4036   8.4065  10.3457  11.4114
    11.5528  14.1548  15.1361  15.4738  17.3499  18.7984

          k = 0.7781-0.1945 1.1671 (   164 PWs)   bands (ev):

    -6.3061  -0.5666   4.0683   4.2172   7.4663   7.9874   9.6010  10.7886
    11.3102  14.3848  15.5861  15.6512  16.3980  18.9521

          k = 0.6808-0.0973 1.0698 (   163 PWs)   bands (ev):

    -6.1812  -0.6489   3.9780   4.5105   7.1627   8.0174  10.4673  11.0549
    11.6953  14.1778  15.3446  16.0683  16.9001  19.1943

          k = 0.5836 0.0000 0.9726 (   162 PWs)   bands (ev):

    -6.2011  -0.5978   4.1523   4.5184   7.2002   8.2719  10.4444  10.9321
    11.8168  14.5159  15.4337  15.9546  17.2975  19.4096

          k =-0.3890-1.1671-0.0000 (   162 PWs)   bands (ev):

    -6.1278  -0.7260   4.0440   4.1596   7.3469   7.9955  10.7068  11.7082
    12.2749  14.4146  15.4968  16.0509  16.5664  19.1333

          k =-0.5836-1.1671-0.0000 (   156 PWs)   bands (ev):

    -5.9648  -0.5873   4.8225   4.8490   8.4378   8.7546  11.5407  12.4389
    12.6440  15.7752  16.2660  17.1114  17.1466  19.2577

     highest occupied level (ev):    19.4966

!    total energy              =    -281.67749366 Ry
     estimated scf accuracy    <          6.7E-10 Ry

     The total energy is the sum of the following terms:
     one-electron contribution =     -16.09621049 Ry
     hartree contribution      =      39.61669506 Ry
     xc contribution           =     -73.70151486 Ry
     ewald contribution        =    -231.49646337 Ry

     convergence has been achieved in  36 iterations

     Forces acting on atoms (cartesian axes, Ry/au):

     atom    1 type  1   force =    -0.00000000   -0.00000000   -0.00000000
     atom    2 type  2   force =    -0.00000000    0.00000000   -0.00000000

     Total force =     0.000000     Total SCF correction =     0.000000


     Computing stress (Cartesian axis) and pressure

          total   stress  (Ry/bohr**3)                   (kbar)     P=   -25899.42
  -0.17606067  -0.00000000  -0.00000000       -25899.42       -0.00       -0.00
  -0.00000000  -0.17606067  -0.00000000           -0.00   -25899.42       -0.00
  -0.00000000  -0.00000000  -0.17606067           -0.00       -0.00   -25899.42

     Energy error            =      1.1E+01 Ry
     Gradient error          =      4.2E-31 Ry/Bohr
     Cell gradient error     =      2.6E+04 kbar

     number of scf cycles    =   2
     number of bfgs steps    =   1

     enthalpy           old  =    -270.4677056883 Ry
     enthalpy           new  =    -281.6774936573 Ry

     CASE: enthalpy          _new < enthalpy          _old


     WARNING: bfgs curvature condition failed, Theta= 0.062
     new trust radius        =       0.6942360498 bohr
     new conv_thr            =            1.0E-11 Ry

     new unit-cell volume =     80.69939 a.u.^3 (    11.95842 Ang^3 )
     density =     20.08519 g/cm^3

CELL_PARAMETERS (alat= 10.68400000)
  -0.321030428   0.000000000   0.321030428
  -0.000000000   0.321030428   0.321030428
  -0.321030428   0.321030428   0.000000000

ATOMIC_POSITIONS (crystal)
Ga              -0.0000000000       -0.0000000000        0.0000000000
As               0.2500000000        0.2500000000        0.2500000000



     Writing config-only to output data dir /home/sachs/software/q-e/tempdir/gaasGGA.save/ :
     XML data file
     NEW-OLD atomic charge density approx. for the potential
     New effective cutoffs (rho, wfc): 1453.07   24.25

     negative rho (up, down):  4.700E+00 0.000E+00

     total cpu time spent up to now is       23.6 secs

     per-process dynamical memory:    14.7 Mb

     Self-consistent Calculation

     iteration #  1     ecut=    10.00 Ry     beta= 0.30
     CG style diagonalization
     c_bands:  4 eigenvalues not converged
     c_bands:  1 eigenvalues not converged
     c_bands:  2 eigenvalues not converged
     c_bands:  1 eigenvalues not converged
     c_bands:  1 eigenvalues not converged
     c_bands:  2 eigenvalues not converged
     c_bands:  5 eigenvalues not converged
     c_bands:  5 eigenvalues not converged
     c_bands:  5 eigenvalues not converged
     c_bands:  5 eigenvalues not converged
     c_bands:  1 eigenvalues not converged
     c_bands:  5 eigenvalues not converged
     c_bands:  5 eigenvalues not converged
     c_bands:  5 eigenvalues not converged
     ethr =  1.00E-06,  avg # of iterations = 19.8

     negative rho (up, down):  2.856E+00 0.000E+00

     total cpu time spent up to now is       25.3 secs

     total energy              =    -326.14730913 Ry
     estimated scf accuracy    <      16.10500967 Ry

     iteration #  2     ecut=    10.00 Ry     beta= 0.30
     CG style diagonalization
     ethr =  1.00E-02,  avg # of iterations =  3.0

     negative rho (up, down):  2.982E-02 0.000E+00

     total cpu time spent up to now is       25.5 secs

     total energy              =    -320.93854204 Ry
     estimated scf accuracy    <       7.19123510 Ry

     iteration #  3     ecut=    10.00 Ry     beta= 0.30
     CG style diagonalization
     ethr =  1.00E-02,  avg # of iterations =  4.0

     negative rho (up, down):  4.498E-03 0.000E+00

     total cpu time spent up to now is       25.9 secs

     total energy              =    -321.43565535 Ry
     estimated scf accuracy    <       0.20221244 Ry

     iteration #  4     ecut=    10.00 Ry     beta= 0.30
     CG style diagonalization
     ethr =  7.22E-04,  avg # of iterations =  3.7

     negative rho (up, down):  2.706E-03 0.000E+00

     total cpu time spent up to now is       26.2 secs

     total energy              =    -321.51906404 Ry
     estimated scf accuracy    <       0.02842899 Ry

     iteration #  5     ecut=    10.00 Ry     beta= 0.30
     CG style diagonalization
     ethr =  1.02E-04,  avg # of iterations =  3.7

     negative rho (up, down):  2.001E-03 0.000E+00

     total cpu time spent up to now is       26.5 secs

     total energy              =    -321.55847362 Ry
     estimated scf accuracy    <       0.00262475 Ry

     iteration #  6     ecut=    10.00 Ry     beta= 0.30
     CG style diagonalization
     ethr =  9.37E-06,  avg # of iterations =  3.2

     negative rho (up, down):  1.288E-03 0.000E+00

     total cpu time spent up to now is       26.7 secs

     total energy              =    -321.58127137 Ry
     estimated scf accuracy    <       0.00002418 Ry

     iteration #  7     ecut=    10.00 Ry     beta= 0.30
     CG style diagonalization
     ethr =  8.63E-08,  avg # of iterations =  4.8

     negative rho (up, down):  8.072E-04 0.000E+00

     total cpu time spent up to now is       27.1 secs

     total energy              =    -321.59513585 Ry
     estimated scf accuracy    <       0.00000800 Ry

     iteration #  8     ecut=    10.00 Ry     beta= 0.30
     CG style diagonalization
     ethr =  2.86E-08,  avg # of iterations =  4.5

     negative rho (up, down):  4.829E-04 0.000E+00

     total cpu time spent up to now is       27.5 secs

     total energy              =    -321.60068050 Ry
     estimated scf accuracy    <       0.00003072 Ry

     iteration #  9     ecut=    10.00 Ry     beta= 0.30
     CG style diagonalization
     ethr =  2.86E-08,  avg # of iterations =  4.2

     negative rho (up, down):  2.754E-04 0.000E+00

     total cpu time spent up to now is       27.8 secs

     total energy              =    -321.60331827 Ry
     estimated scf accuracy    <       0.00005961 Ry

     iteration # 10     ecut=    10.00 Ry     beta= 0.30
     CG style diagonalization
     ethr =  2.86E-08,  avg # of iterations =  4.3

     negative rho (up, down):  1.395E-04 0.000E+00

     total cpu time spent up to now is       28.2 secs

     total energy              =    -321.60454624 Ry
     estimated scf accuracy    <       0.00000111 Ry

     iteration # 11     ecut=    10.00 Ry     beta= 0.30
     CG style diagonalization
     ethr =  3.95E-09,  avg # of iterations =  4.1

     negative rho (up, down):  6.938E-05 0.000E+00

     total cpu time spent up to now is       28.5 secs

     total energy              =    -321.60513055 Ry
     estimated scf accuracy    <       0.00000122 Ry

     iteration # 12     ecut=    10.00 Ry     beta= 0.30
     CG style diagonalization
     ethr =  3.95E-09,  avg # of iterations =  4.4

     negative rho (up, down):  2.466E-05 0.000E+00

     total cpu time spent up to now is       28.9 secs

     total energy              =    -321.60541857 Ry
     estimated scf accuracy    <       0.00000910 Ry

     iteration # 13     ecut=    10.00 Ry     beta= 0.30
     CG style diagonalization
     ethr =  3.95E-09,  avg # of iterations =  3.4

     negative rho (up, down):  4.951E-06 0.000E+00

     total cpu time spent up to now is       29.1 secs

     total energy              =    -321.60555842 Ry
     estimated scf accuracy    <       0.00000750 Ry

     iteration # 14     ecut=    10.00 Ry     beta= 0.30
     CG style diagonalization
     ethr =  3.95E-09,  avg # of iterations =  3.1

     negative rho (up, down):  6.795E-07 0.000E+00

     total cpu time spent up to now is       29.4 secs

     total energy              =    -321.60562769 Ry
     estimated scf accuracy    <       0.00000688 Ry

     iteration # 15     ecut=    10.00 Ry     beta= 0.30
     CG style diagonalization
     c_bands:  1 eigenvalues not converged
     ethr =  3.95E-09,  avg # of iterations =  3.0

     total cpu time spent up to now is       29.7 secs

     total energy              =    -321.60591806 Ry
     estimated scf accuracy    <       0.00000490 Ry

     iteration # 16     ecut=    10.00 Ry     beta= 0.30
     CG style diagonalization
     ethr =  3.95E-09,  avg # of iterations =  3.3

     total cpu time spent up to now is       29.9 secs

     total energy              =    -321.60593425 Ry
     estimated scf accuracy    <       0.00000242 Ry

     iteration # 17     ecut=    10.00 Ry     beta= 0.30
     CG style diagonalization
     ethr =  3.95E-09,  avg # of iterations =  3.0

     total cpu time spent up to now is       30.2 secs

     total energy              =    -321.60594165 Ry
     estimated scf accuracy    <       0.00000429 Ry

     iteration # 18     ecut=    10.00 Ry     beta= 0.30
     CG style diagonalization
     ethr =  3.95E-09,  avg # of iterations =  4.3

     total cpu time spent up to now is       30.5 secs

     total energy              =    -321.60594622 Ry
     estimated scf accuracy    <       0.00000010 Ry

     iteration # 19     ecut=    10.00 Ry     beta= 0.30
     CG style diagonalization
     ethr =  3.40E-10,  avg # of iterations =  3.3

     total cpu time spent up to now is       30.8 secs

     total energy              =    -321.60594806 Ry
     estimated scf accuracy    <       0.00000014 Ry

     iteration # 20     ecut=    10.00 Ry     beta= 0.30
     CG style diagonalization
     ethr =  3.40E-10,  avg # of iterations =  3.0

     total cpu time spent up to now is       31.0 secs

     total energy              =    -321.60594896 Ry
     estimated scf accuracy    <       0.00000016 Ry

     iteration # 21     ecut=    10.00 Ry     beta= 0.30
     CG style diagonalization
     ethr =  3.40E-10,  avg # of iterations =  3.0

     total cpu time spent up to now is       31.3 secs

     total energy              =    -321.60594939 Ry
     estimated scf accuracy    <       0.00000014 Ry

     iteration # 22     ecut=    10.00 Ry     beta= 0.30
     CG style diagonalization
     ethr =  3.40E-10,  avg # of iterations =  3.0

     total cpu time spent up to now is       31.5 secs

     total energy              =    -321.60594961 Ry
     estimated scf accuracy    <       0.00000019 Ry

     iteration # 23     ecut=    10.00 Ry     beta= 0.30
     CG style diagonalization
     ethr =  3.40E-10,  avg # of iterations =  3.1

     total cpu time spent up to now is       31.8 secs

     total energy              =    -321.60594970 Ry
     estimated scf accuracy    <       0.00000010 Ry

     iteration # 24     ecut=    10.00 Ry     beta= 0.30
     CG style diagonalization
     ethr =  3.40E-10,  avg # of iterations =  3.3

     total cpu time spent up to now is       32.1 secs

     total energy              =    -321.60594975 Ry
     estimated scf accuracy    <       0.00000001 Ry

     iteration # 25     ecut=    10.00 Ry     beta= 0.30
     CG style diagonalization
     ethr =  4.49E-11,  avg # of iterations =  4.2

     total cpu time spent up to now is       32.4 secs

     total energy              =    -321.60594979 Ry
     estimated scf accuracy    <       0.00000001 Ry

     iteration # 26     ecut=    10.00 Ry     beta= 0.30
     CG style diagonalization
     ethr =  4.02E-11,  avg # of iterations =  3.0

     total cpu time spent up to now is       32.7 secs

     total energy              =    -321.60594980 Ry
     estimated scf accuracy    <          4.2E-09 Ry

     iteration # 27     ecut=    10.00 Ry     beta= 0.30
     CG style diagonalization
     ethr =  1.50E-11,  avg # of iterations =  3.8

     total cpu time spent up to now is       33.0 secs

     total energy              =    -321.60594980 Ry
     estimated scf accuracy    <          4.5E-10 Ry

     iteration # 28     ecut=    10.00 Ry     beta= 0.30
     CG style diagonalization
     ethr =  1.61E-12,  avg # of iterations =  4.0

     total cpu time spent up to now is       33.3 secs

     total energy              =    -321.60594981 Ry
     estimated scf accuracy    <          4.6E-10 Ry

     iteration # 29     ecut=    10.00 Ry     beta= 0.30
     CG style diagonalization
     ethr =  1.61E-12,  avg # of iterations =  3.9

     total cpu time spent up to now is       33.6 secs

     total energy              =    -321.60594981 Ry
     estimated scf accuracy    <          1.2E-11 Ry

     iteration # 30     ecut=    10.00 Ry     beta= 0.30
     CG style diagonalization
     ethr =  1.00E-13,  avg # of iterations =  3.3

     total cpu time spent up to now is       33.9 secs

     End of self-consistent calculation

          k = 0.0000 0.0000 0.0000 (   169 PWs)   bands (ev):

     9.9852   9.9852  11.5770  11.5770  11.5770  15.8815  24.4192  24.4192
    24.4192  26.8604  26.8604  53.8711  53.8711  53.8711

          k =-0.1298 0.1298-0.1298 (   169 PWs)   bands (ev):

    10.0771  10.0771  11.6913  11.7143  11.7143  16.0976  24.3882  24.4110
    24.4110  27.0554  27.0554  51.1980  53.0179  53.0179

          k =-0.2596 0.2596-0.2596 (   165 PWs)   bands (ev):

    11.1880  11.1880  12.5754  12.5754  13.6851  16.7674  24.4789  24.4789
    25.4236  29.1258  29.1258  47.3717  51.2674  51.2674

          k =-0.3894 0.3894-0.3894 (   162 PWs)   bands (ev):

    11.4713  11.4713  13.0832  14.5286  14.5286  17.7775  25.1012  25.7160
    25.7160  30.4802  30.4802  42.3280  49.4225  49.4225

          k =-0.5192 0.5192-0.5192 (   153 PWs)   bands (ev):

    13.3031  13.3031  16.4711  16.5859  16.5859  19.1420  25.9079  27.3678
    27.3678  32.5811  32.5811  39.6117  48.4078  48.4078

          k =-0.6490 0.6490-0.6490 (   162 PWs)   bands (ev):

    10.1308  12.7648  12.7648  14.9001  14.9001  18.9672  25.8766  27.2926
    27.2926  29.7244  29.7244  35.2930  47.1890  47.1890

          k = 0.7787-0.7787 0.7787 (   168 PWs)   bands (ev):

     9.0670   9.0670   9.8852  14.3624  14.3624  19.1457  26.5873  26.6903
    26.6903  28.5770  28.5770  33.7574  46.6061  46.6061

          k = 0.0000 0.2596 0.0000 (   169 PWs)   bands (ev):

    10.0412  10.1742  11.7056  11.7726  11.7726  16.1675  23.9992  24.6364
    24.6364  26.8688  27.2997  51.7026  51.7026  52.4965

          k =-0.1298 0.3894-0.1298 (   164 PWs)   bands (ev):

    10.4560  11.7911  12.5927  13.2912  14.3319  16.6681  24.3119  25.0047
    25.7660  27.1337  30.9083  48.6940  49.8481  51.6846

          k =-0.2596 0.5192-0.2596 (   160 PWs)   bands (ev):

    12.0696  12.6923  13.3833  13.8334  15.4879  17.5933  24.7993  25.9030
    26.5908  29.6271  31.9383  43.9159  48.6536  50.3741

          k =-0.3894 0.6490-0.3894 (   156 PWs)   bands (ev):

    12.1278  13.1780  15.1989  15.6918  16.5202  18.8679  25.3298  26.7978
    27.4834  31.3511  32.0539  40.8637  47.2002  48.4823

          k =-0.5192 0.7787-0.5192 (   160 PWs)   bands (ev):

    10.8583  13.0306  13.1337  15.7312  15.9658  19.1746  25.5337  26.9657
    27.4721  29.9595  31.1096  36.6377  46.2448  46.9789

          k = 0.9085-0.6490 0.9085 (   164 PWs)   bands (ev):

     9.9747  11.1557  12.1168  14.8340  14.8755  19.2727  26.1074  27.1842
    27.3591  29.1177  30.1654  33.9162  45.6990  46.1851

          k = 0.7787-0.5192 0.7787 (   162 PWs)   bands (ev):

    10.0563  12.7340  13.1208  14.9320  14.9780  19.2155  26.1463  27.2239
    27.4638  29.8810  29.9701  34.4989  45.5817  46.6908

          k = 0.6490-0.3894 0.6490 (   161 PWs)   bands (ev):

    11.4990  11.5920  12.9296  15.2259  16.0038  19.0852  25.5747  26.2942
    27.1502  29.9748  30.2774  38.0483  45.7056  47.8634

          k = 0.5192-0.2596 0.5192 (   157 PWs)   bands (ev):

    11.8008  12.7202  15.2642  15.6480  16.4289  18.4202  25.3809  25.8714
    27.1678  31.1530  32.1052  41.7041  46.9101  49.6053

          k = 0.3894-0.1298 0.3894 (   159 PWs)   bands (ev):

    12.4727  12.4978  12.9931  14.5125  16.2857  17.2560  25.1173  25.2626
    26.3237  29.8890  32.4558  45.6292  48.4522  51.6222

          k = 0.2596 0.0000 0.2596 (   163 PWs)   bands (ev):

    11.0266  11.4753  13.5395  13.5512  13.6081  16.4703  24.4760  25.3479
    25.8699  28.1790  30.4372  50.0242  50.6053  53.0121

          k = 0.0000 0.5192 0.0000 (   161 PWs)   bands (ev):

    10.7342  12.5791  13.9715  13.9715  14.5066  17.0013  24.3320  26.9008
    26.9601  26.9601  31.1891  48.9452  48.9452  49.9483

          k =-0.1298 0.6490-0.1298 (   162 PWs)   bands (ev):

    11.8950  11.9060  13.0848  13.1255  15.0553  17.7512  24.0265  26.4643
    26.5699  28.4357  31.6586  44.9077  46.7813  48.4770

          k =-0.2596 0.7787-0.2596 (   159 PWs)   bands (ev):

    12.3156  13.1972  14.3692  14.7261  15.6196  18.8201  24.2242  26.9792
    27.1243  29.8863  32.7031  41.0597  45.2084  46.9893

          k =-0.3894 0.9085-0.3894 (   160 PWs)   bands (ev):

    11.3967  12.3588  13.6137  15.2207  16.2610  19.4978  24.7760  27.0164
    27.8973  30.6391  32.3675  37.7539  44.4980  45.1553

          k = 1.0383-0.5192 1.0383 (   162 PWs)   bands (ev):

    10.2480  12.2495  13.1639  14.4696  16.2312  19.7033  25.0110  27.5518
    28.0068  30.3009  31.8750  34.6651  43.4247  44.4688

          k = 0.9085-0.3894 0.9085 (   164 PWs)   bands (ev):

     9.9955  11.9111  12.8757  13.5007  15.3051  19.5880  25.5147  27.1765
    27.4819  29.8269  30.3355  33.9765  42.4582  45.0066

          k = 0.7787-0.2596 0.7787 (   161 PWs)   bands (ev):

    11.4506  11.5789  13.2774  15.3949  16.0427  19.6365  25.7433  26.3514
    27.6692  30.2307  30.3797  37.1358  42.5133  46.3059

          k = 0.6490-0.1298 0.6490 (   161 PWs)   bands (ev):

    11.4839  12.1607  13.2740  14.8071  16.0432  19.0514  24.8055  25.7681
[...]

     total cpu time spent up to now is      109.5 secs

     total energy              =    -339.91223090 Ry
     estimated scf accuracy    <          2.6E-10 Ry

     iteration #  6     ecut=    10.00 Ry     beta= 0.30
     CG style diagonalization
     ethr =  9.22E-13,  avg # of iterations =  4.3

     total cpu time spent up to now is      109.8 secs

     total energy              =    -339.91223090 Ry
     estimated scf accuracy    <          1.0E-09 Ry

     iteration #  7     ecut=    10.00 Ry     beta= 0.30
     CG style diagonalization
     ethr =  9.22E-13,  avg # of iterations =  4.5

     total cpu time spent up to now is      110.2 secs

     total energy              =    -339.91223090 Ry
     estimated scf accuracy    <          1.6E-11 Ry

     iteration #  8     ecut=    10.00 Ry     beta= 0.30
     CG style diagonalization
     ethr =  1.00E-13,  avg # of iterations =  3.9

     total cpu time spent up to now is      110.5 secs

     End of self-consistent calculation

          k = 0.0000 0.0000 0.0000 (   169 PWs)   bands (ev):

    27.8400  27.8400  29.9224  29.9224  29.9224  45.7841  49.5429  49.5429
    49.5429  52.7032  52.7032 102.4195 102.4195 102.4195

          k =-0.1646 0.1646-0.1646 (   169 PWs)   bands (ev):

    27.8086  27.8086  29.9665  30.1143  30.1143  46.2035  49.4470  49.5465
    49.5465  52.8456  52.8456  97.1136 101.6516 101.6516

          k =-0.3291 0.3291-0.3291 (   165 PWs)   bands (ev):

    28.2292  28.2292  30.7550  30.7550  30.8071  47.4599  49.5785  49.5785
    49.9254  54.1356  54.1356  91.4543 100.3219 100.3219

          k =-0.4937 0.4937-0.4937 (   162 PWs)   bands (ev):

    28.6717  28.6717  30.4260  31.3611  31.3611  48.5017  50.3061  50.3061
    50.3368  54.8658  54.8658  84.5279  98.5123  99.0976

          k =-0.6583 0.6583-0.6583 (   153 PWs)   bands (ev):

    29.5499  29.5499  31.7552  32.2232  32.2232  48.5937  51.2651  51.2651
    53.5640  56.5034  56.5034  78.9002  97.1585  99.2970

          k =-0.8229 0.8229-0.8229 (   162 PWs)   bands (ev):

    28.7604  29.5008  29.5008  31.2121  31.2121  47.3653  51.1664  51.1664
    54.7576  54.7576  56.9576  72.4958  96.2173  98.3745

          k = 0.9874-0.9874 0.9874 (   168 PWs)   bands (ev):

    28.2916  28.2916  28.5216  30.7417  30.7417  47.2100  50.7228  50.7228
    54.3229  54.3229  59.0147  69.7628  95.9506  97.9235

          k = 0.0000 0.3291 0.0000 (   169 PWs)   bands (ev):

    27.5663  28.0669  29.9805  29.9805  30.3406  46.3131  48.9968  49.8204
    49.8204  52.6227  53.0738  98.2817  99.1381  99.1381

          k =-0.1646 0.4937-0.1646 (   164 PWs)   bands (ev):

    28.2957  28.3908  30.3767  30.6420  31.4532  47.2060  49.0108  50.1456
    50.6388  52.7591  55.2368  93.5279  96.8072  98.7150

          k =-0.3291 0.6583-0.3291 (   160 PWs)   bands (ev):

    28.3837  29.4399  30.3915  30.9708  32.3847  48.4178  49.3260  50.8350
    51.2385  54.3622  55.9782  86.8701  95.9609  97.4158

          k =-0.4937 0.8229-0.4937 (   156 PWs)   bands (ev):

    28.4487  29.9533  31.3673  31.4444  32.6779  48.7952  50.0747  51.5895
    52.9945  55.5787  56.2400  81.0917  94.6470  96.2231

          k =-0.6583 0.9874-0.6583 (   160 PWs)   bands (ev):

    28.3594  29.7619  29.9348  31.4622  32.3562  47.9706  50.2567  51.5604
    54.6316  55.2093  56.8268  74.5086  94.5612  95.2081

          k = 1.1520-0.8229 1.1520 (   164 PWs)   bands (ev):

    28.0495  28.9764  29.5154  31.1965  31.4049  47.4684  50.5358  51.0017
    54.6941  54.9065  59.5870  70.1629  94.0357  95.3053

          k = 0.9874-0.6583 0.9874 (   162 PWs)   bands (ev):

    28.2429  29.1517  30.1946  31.1272  31.6110  47.5225  50.8788  50.9975
    54.6197  55.1669  58.8011  71.1976  93.1487  96.9255

          k = 0.8229-0.4937 0.8229 (   161 PWs)   bands (ev):

    28.4582  29.0629  30.1486  31.7466  31.9088  48.3372  50.4352  51.0407
    54.0290  54.7065  55.7198  76.7114  92.5214  97.4987

          k = 0.6583-0.3291 0.6583 (   157 PWs)   bands (ev):

    28.4753  29.6197  31.0852  31.7504  32.5021  48.8706  50.1997  50.7294
    52.1309  55.2953  55.9603  82.9998  93.2174  98.7549

          k = 0.4937-0.1646 0.4937 (   159 PWs)   bands (ev):

    28.7681  29.2833  30.1787  31.5051  32.3158  48.3304  49.4950  49.9341
    51.2089  54.4100  56.0795  89.2150  94.6254 100.8242

          k = 0.3291 0.0000 0.3291 (   163 PWs)   bands (ev):

    28.3714  28.4970  30.7146  30.9671  31.0818  46.8926  49.4307  49.9464
    50.8062  53.3866  55.0731  95.0420  97.5279 103.4737

          k = 0.0000 0.6583 0.0000 (   161 PWs)   bands (ev):

    28.1199  28.7336  30.9320  30.9320  32.1364  47.3067  49.0759  51.8814
    51.8814  52.3919  55.4791  94.8040  94.9648  94.9648

          k =-0.1646 0.8229-0.1646 (   162 PWs)   bands (ev):

    27.8539  29.5289  30.3060  30.5289  32.4211  47.4531  49.7656  51.6149
    51.6165  53.3311  55.8432  88.7879  92.1917  94.2443

          k =-0.3291 0.9874-0.3291 (   159 PWs)   bands (ev):

    27.9552  30.3328  30.8189  30.8292  32.8321  47.8084  50.2779  51.5309
    53.0507  54.5854  56.9854  82.7416  90.4531  92.8972

          k =-0.4937 1.1520-0.4937 (   160 PWs)   bands (ev):

    27.8442  29.4750  30.2299  31.5849  33.1521  48.3173  49.4734  51.7760
    55.0873  55.3646  58.0521  76.5942  89.9237  90.9760

          k = 1.3166-0.6583 1.3166 (   162 PWs)   bands (ev):

    27.3438  29.4613  29.6036  32.3075  32.3132  48.0467  49.4342  51.2903
    55.2921  55.7064  60.9169  71.3772  88.6361  90.9466

          k = 1.1520-0.4937 1.1520 (   164 PWs)   bands (ev):

    27.2217  29.0503  29.9022  31.2090  32.2226  47.9488  49.8534  50.6155
    53.9012  55.6490  61.4142  70.5278  86.9593  92.8701

          k = 0.9874-0.3291 0.9874 (   161 PWs)   bands (ev):

    28.1380  28.2868  30.8754  31.8369  32.3886  48.6164  50.1187  50.7249
    54.0916  55.1549  58.3579  75.3728  86.3376  96.1095

          k = 0.8229-0.1646 0.8229 (   161 PWs)   bands (ev):

    28.0753  29.0398  30.0453  31.7747  32.7508  48.8510  49.8951  50.7834
    52.5950  55.6154  56.0221  81.1713  86.8140  98.1786

          k = 0.6583 0.0000 0.6583 (   160 PWs)   bands (ev):

    28.4419  29.5136  29.7355  31.3935  32.8359  48.9507  49.8586  49.9994
    51.5318  54.1493  56.0682  86.8443  88.4860  99.4154

          k = 0.0000 0.9874 0.0000 (   165 PWs)   bands (ev):

    27.6706  29.2411  29.9569  29.9569  32.3444  46.9135  50.5868  50.7602
    52.7934  52.7934  56.0804  88.8461  88.8461  90.7846

          k =-0.1646 1.1520-0.1646 (   160 PWs)   bands (ev):

    27.8602  29.7254  30.4755  31.4072  32.9100  47.2467  51.2834  51.3229
    53.9817  54.2148  58.2616  84.4830  86.7721  88.6570

          k =-0.3291 1.3166-0.3291 (   161 PWs)   bands (ev):

    27.4896  29.7731  29.8818  31.5779  33.1246  47.6523  50.6961  50.8466
    55.2918  55.7197  59.7670  79.1759  85.6422  85.6770

          k = 1.4811-0.4937 1.4811 (   164 PWs)   bands (ev):

    27.1786  29.0379  29.3635  31.8251  32.9450  48.0220  49.5146  50.4671
    55.2072  56.4460  62.6297  73.3874  83.4187  86.0621

          k = 1.3166-0.3291 1.3166 (   158 PWs)   bands (ev):

    27.2584  29.4609  30.6483  33.2177  33.3535  48.5643  49.8952  50.6992
    56.6619  57.3075  64.7423  70.7922  81.6655  88.4937

          k = 1.1520-0.1646 1.1520 (   165 PWs)   bands (ev):

    26.9976  27.7846  30.7850  31.6238  32.5846  48.5448  49.6598  49.6981
    53.9829  55.4730  61.3532  74.4296  80.0107  91.5317

          k = 0.9874 0.0000 0.9874 (   164 PWs)   bands (ev):

    27.6450  27.6818  30.5845  31.3539  32.8560  48.5879  49.6206  50.4721
    52.6636  56.1643  57.9066  79.2606  80.7258  95.7567

          k = 0.0000 1.3166 0.0000 (   170 PWs)   bands (ev):

    26.9992  29.0177  29.0177  30.0199  31.5136  46.6923  50.0274  51.7227
    53.9013  53.9013  59.3520  83.6615  83.9520  83.9520

          k =-0.1646 1.4811-0.1646 (   166 PWs)   bands (ev):

    27.2385  28.9321  29.0361  31.5893  31.8738  47.2821  50.4799  51.4839
    55.0724  55.1929  61.7854  79.8802  81.2426  82.4953

          k = 1.6457-0.3291 1.6457 (   168 PWs)   bands (ev):

    26.8279  28.6480  28.8970  31.4748  31.8549  47.8187  49.7432  50.1217
    55.1401  56.3904  64.7800  75.2976  78.3153  82.5070

          k = 1.4811-0.1646 1.4811 (   166 PWs)   bands (ev):

    26.7538  28.1973  29.9324  31.7292  32.7236  48.2034  49.6394  49.7032
    54.9041  56.9799  68.0406  71.5331  76.2903  84.0809

          k = 1.3166 0.0000 1.3166 (   172 PWs)   bands (ev):

    25.8400  27.5443  29.7672  31.2578  31.3241  47.5432  49.1557  49.1759
    54.4799  55.2877  65.0777  73.4034  75.3964  86.8625

          k = 0.0000 1.6457 0.0000 (   162 PWs)   bands (ev):

    27.7503  29.4177  29.4177  30.8209  33.5197  47.9212  51.4721  52.0102
    55.6797  55.6797  64.4472  76.8590  80.6389  80.6389

          k = 1.8103-0.1646 1.8103 (   164 PWs)   bands (ev):

    27.6777  29.1934  29.3436  30.8716  33.0612  48.4539  50.7925  50.9054
    55.9070  56.4640  67.2633  73.7086  78.3427  80.1966

          k = 1.6457 0.0000 1.6457 (   170 PWs)   bands (ev):

    26.7222  28.3055  29.3059  31.1558  31.2888  48.3162  49.3112  49.3257
    54.9484  56.8533  69.1197  71.6804  75.3153  81.4245

          k =-0.0000-1.9749-0.0000 (   150 PWs)   bands (ev):

    30.2020  30.7145  31.1102  31.1102  34.5146  50.6332  51.3438  51.7024
    58.7135  58.7135  69.0528  73.0952  79.3644  79.3644

          k =-0.3291 0.6583-0.0000 (   162 PWs)   bands (ev):

    28.1341  29.1145  30.0822  30.9272  32.1610  47.9422  49.1346  50.4422
    51.4438  53.1369  55.7454  90.8251  92.3888  98.0472

          k =-0.4937 0.8229-0.1646 (   161 PWs)   bands (ev):

    28.0837  29.6175  30.0711  31.0420  32.6560  48.2864  49.8252  50.8719
    51.8431  54.1847  56.0097  84.8257  90.0964  96.6332

          k =-0.6583 0.9874-0.3291 (   159 PWs)   bands (ev):

    28.0069  29.5066  30.6783  31.6179  32.8925  48.6367  50.0026  51.4585
    53.9294  55.3540  56.6474  79.1812  89.3786  94.9380

          k = 1.1520-0.8229 1.4811 (   163 PWs)   bands (ev):

    27.6875  28.7694  30.4915  31.0723  32.2241  47.9590  49.8725  51.0755
    54.5117  55.0623  59.0895  72.8832  89.3405  92.9096

          k = 0.9874-0.6583 1.3166 (   166 PWs)   bands (ev):

    27.2863  28.5876  29.7835  31.1072  31.4821  47.7523  49.8891  50.5448
    53.5390  55.0881  61.1972  69.9263  89.7903  91.2138

          k =-0.3291 0.9874-0.0000 (   160 PWs)   bands (ev):

    27.8797  29.9200  30.4162  31.0734  32.8483  47.4544  50.6266  51.0991
    52.9423  54.0632  57.1807  86.6263  87.6502  92.5958

          k =-0.4937 1.1520-0.1646 (   162 PWs)   bands (ev):

    27.7157  29.4688  30.5129  30.6698  33.0927  47.8175  50.5312  50.8407
    53.7956  55.0947  57.7811  81.0130  85.7629  90.1506

          k = 1.3166-0.6583 1.6457 (   163 PWs)   bands (ev):

    27.2663  28.4899  30.6299  31.6934  32.7140  48.0962  49.4330  50.9378
    54.8244  56.0410  60.3049  75.0621  85.4739  87.4749

          k = 1.1520-0.4937 1.4811 (   166 PWs)   bands (ev):

    26.7989  28.2250  30.1491  31.8197  31.9713  47.9944  49.1344  50.4550
    54.1502  55.7203  63.3110  70.6406  84.7224  86.8311

          k = 0.9874-0.3291 1.3166 (   165 PWs)   bands (ev):

    26.9052  28.2557  30.7044  31.5956  32.1253  48.1047  49.4384  50.3937
    54.1234  55.8661  62.0655  72.1592  83.3048  88.9201

          k = 0.8229-0.1646 1.1520 (   163 PWs)   bands (ev):

    27.5529  28.2229  30.6433  31.3924  32.9602  48.5078  49.7780  50.3807
    53.3792  56.1257  58.5480  77.5623  82.9955  92.0602

          k = 0.6583 0.0000 0.9874 (   158 PWs)   bands (ev):

    27.9890  29.6012  30.7392  31.7635  33.4339  48.5550  50.1618  51.5835
    52.7912  55.6808  56.9335  83.1737  84.3947  94.7892

          k =-0.3291 1.3166-0.0000 (   162 PWs)   bands (ev):

    27.5698  29.2256  30.2011  31.3953  32.8552  47.3392  50.7000  51.5798
    54.6242  55.2412  59.7971  82.2252  82.9797  85.2295

          k = 1.4811-0.4937 1.8103 (   163 PWs)   bands (ev):

    27.6404  28.4913  30.0987  31.5652  33.0382  47.8648  50.0579  50.4810
    55.2806  56.6015  62.2479  77.5139  81.6239  82.7593

          k = 1.3166-0.3291 1.6457 (   165 PWs)   bands (ev):

    26.9520  28.0790  30.0993  31.9293  32.9293  48.0830  49.2153  50.0710
    54.7645  56.9818  65.5402  72.4398  79.7021  83.1307

          k = 1.1520-0.1646 1.4811 (   165 PWs)   bands (ev):

    26.6076  27.9497  30.7694  32.1473  32.6031  48.1699  48.9357  50.1387
    55.3659  56.8560  65.5670  72.0258  78.0252  85.1871

          k = 0.9874 0.0000 1.3166 (   165 PWs)   bands (ev):

    27.0184  27.4960  31.0684  31.6665  32.4695  48.4558  49.2530  50.1532
    54.4972  55.6645  61.8000  76.5338  77.8720  88.2174

          k = 1.6457-0.3291 1.9749 (   164 PWs)   bands (ev):

    27.4809  28.5180  29.7236  31.5329  32.9080  48.0164  50.5328  51.0988
    54.9503  56.6522  64.6078  77.0093  79.6949  79.8196

          k = 1.4811-0.1646 1.8103 (   167 PWs)   bands (ev):

    26.8778  27.8790  30.1090  31.3874  32.2460  48.1736  49.5260  49.7988
    55.8146  56.9730  67.5520  73.7700  76.2454  80.1725

          k = 1.3166 0.0000 1.6457 (   164 PWs)   bands (ev):

    26.4948  28.2240  30.6901  32.3179  32.7864  48.1522  49.3353  49.9143
    56.1814  57.6887  69.1363  71.7805  74.5167  82.1969

          k =-0.3291-1.9749-0.0000 (   164 PWs)   bands (ev):

    27.5785  28.3768  30.3562  31.1126  32.6648  49.1248  49.5678  50.2752
    56.5193  57.2812  69.0490  72.4738  78.4420  78.5360

          k = 1.3166-0.6583 1.9749 (   163 PWs)   bands (ev):

    27.7634  28.0688  30.4529  31.6633  32.9351  47.9856  50.2875  50.8687
    53.6947  56.1720  60.0650  79.3324  80.4415  86.8270

          k = 1.1520-0.4937 1.8103 (   163 PWs)   bands (ev):

    27.1126  27.8133  30.9646  32.0824  32.8820  48.2918  49.3223  50.5867
    54.8130  57.0828  63.4285  74.4896  80.1219  84.0270

          k = 0.9874-0.3291 1.6457 (   162 PWs)   bands (ev):

    26.9034  27.9064  31.2312  32.5329  32.8081  48.4177  49.0518  50.4147
    55.8988  57.1877  66.2847  71.2018  80.9505  82.3239

          k = 1.3166-0.3291 1.9749 (   164 PWs)   bands (ev):

    27.1213  27.5549  30.8094  32.1230  32.6603  48.1121  49.3850  50.3077
    55.5769  56.8903  65.5087  76.5534  77.5827  79.6003

          k = 1.1520-0.1646 1.8103 (   163 PWs)   bands (ev):

    26.7286  27.6017  31.4522  32.2849  32.9629  48.1340  48.7852  50.2871
    56.4449  57.8694  68.7405  72.7443  76.5754  78.9115

          k = 0.9874 0.0000 1.6457 (   162 PWs)   bands (ev):

    26.7386  27.7521  31.6467  32.2805  33.1226  48.4371  48.7521  50.3470
    56.5190  57.7129  67.2054  74.2275  75.8089  80.9668

          k =-0.6583-1.9749-0.0000 (   162 PWs)   bands (ev):

    26.8343  27.6190  31.3774  32.4485  33.2067  48.6397  48.7663  50.3093
    56.7573  58.1803  70.3901  72.7235  76.4934  76.9477

          k =-0.9874-1.9749-0.0000 (   156 PWs)   bands (ev):

    27.7358  27.7628  32.8948  33.0361  33.8491  48.4768  49.2266  50.6779
    57.7014  59.1951  71.7731  73.2051  75.3220  76.1728

     highest occupied level (ev):   103.4737

!    total energy              =    -339.91223090 Ry
     estimated scf accuracy    <          2.6E-13 Ry

     The total energy is the sum of the following terms:
     one-electron contribution =     118.98251082 Ry
     hartree contribution      =      26.67889061 Ry
     xc contribution           =     -93.85542354 Ry
     ewald contribution        =    -391.71820880 Ry

     convergence has been achieved in   8 iterations

     Forces acting on atoms (cartesian axes, Ry/au):

     atom    1 type  1   force =     0.00000000   -0.00000000    0.00000000
     atom    2 type  2   force =    -0.00000000    0.00000000   -0.00000000

     Total force =     0.000000     Total SCF correction =     0.000000


     Computing stress (Cartesian axis) and pressure

          total   stress  (Ry/bohr**3)                   (kbar)     P=      134.65
   0.00091535   0.00000000   0.00000000          134.65        0.00        0.00
   0.00000000   0.00091535   0.00000000            0.00      134.65        0.00
   0.00000000   0.00000000   0.00091535            0.00        0.00      134.65

     Message from routine bfgs:
     history already reset at previous step: exiting
     Energy error            =      7.6E-06 Ry
     Gradient error          =      2.1E-30 Ry/Bohr
     Cell gradient error     =      1.3E+02 kbar

     bfgs failed after  12 scf cycles and   8 bfgs steps, convergence not achieved
     (criteria: energy <  1.0E-04 Ry, force <  1.0E-05 Ry/Bohr, cell <  5.0E-01 kbar)

     End of BFGS Geometry Optimization

     Final enthalpy           =    -339.9122309038 Ry

     File /home/sachs/software/q-e/tempdir/gaasGGA.bfgs deleted, as requested
Begin final coordinates
     new unit-cell volume =     39.58483 a.u.^3 (     5.86587 Ang^3 )
     density =     40.94655 g/cm^3

CELL_PARAMETERS (alat= 10.68400000)
  -0.253181752   0.000000000   0.253181752
  -0.000000000   0.253181752   0.253181752
  -0.253181752   0.253181752   0.000000000

ATOMIC_POSITIONS (crystal)
Ga              -0.0000000000        0.0000000000       -0.0000000000
As               0.2500000000        0.2500000000        0.2500000000
End final coordinates



     Writing config-only to output data dir /home/sachs/software/q-e/tempdir/gaasGGA.save/ :
     XML data file

     Writing all to output data dir /home/sachs/software/q-e/tempdir/gaasGGA.save/ :
     XML data file, charge density, pseudopotentials, collected wavefunctions

     init_run     :      1.24s CPU      1.28s WALL (       1 calls)
     electrons    :     87.82s CPU    103.89s WALL (      12 calls)
     update_pot   :      1.16s CPU      1.25s WALL (      11 calls)
     forces       :      0.95s CPU      1.07s WALL (      12 calls)
     stress       :      2.03s CPU      2.31s WALL (      12 calls)

     Called by init_run:
     wfcinit      :      0.05s CPU      0.06s WALL (       1 calls)
     potinit      :      0.15s CPU      0.17s WALL (       1 calls)
     hinit0       :      0.48s CPU      0.49s WALL (       1 calls)

     Called by electrons:
     c_bands      :     66.48s CPU     78.77s WALL (     297 calls)
     sum_band     :      4.18s CPU      5.05s WALL (     297 calls)
     v_of_rho     :     15.49s CPU     17.54s WALL (     306 calls)
     mix_rho      :      0.79s CPU      0.88s WALL (     297 calls)

     Called by c_bands:
     init_us_2    :      0.47s CPU      0.55s WALL (   14856 calls)
     ccgdiagg     :     51.89s CPU     62.30s WALL (    7165 calls)
     wfcrot       :      8.47s CPU      9.93s WALL (    6829 calls)

     Called by *cgdiagg:
     h_psi        :     33.84s CPU     40.55s WALL (  325029 calls)

     Called by h_psi:
     h_psi:calbec :      7.97s CPU      9.58s WALL (  325029 calls)
     vloc_psi     :     19.21s CPU     22.98s WALL (  325029 calls)
                                        0.00s GPU  (  325029 calls)
     add_vuspsi   :      4.24s CPU      5.19s WALL (  325029 calls)
     hs_1psi      :     29.64s CPU     35.51s WALL (  318200 calls)
     s_1psi       :      7.34s CPU      8.66s WALL (  318200 calls)

     General routines
     calbec       :     13.30s CPU     16.20s WALL (  648125 calls)
     fft          :      6.91s CPU      8.21s WALL (    3950 calls)
     ffts         :      0.11s CPU      0.13s WALL (     603 calls)
     fftw         :     18.33s CPU     21.88s WALL (  927596 calls)
     interpolate  :      0.62s CPU      0.70s WALL (     306 calls)
     davcio       :      0.00s CPU      0.00s WALL (      24 calls)

     Parallel routines

     PWSCF        :   1m34.08s CPU   1m51.15s WALL


   This run was terminated on:  11:40:26  26Feb2026            

=------------------------------------------------------------------------------=
   JOB DONE.
=------------------------------------------------------------------------------=
