
     Program PWSCF v.7.5 starts on 27Jan2026 at 15:41: 0 

     This program is part of the open-source Quantum ESPRESSO suite
     for quantum simulation of materials; please cite
         "P. Giannozzi et al., J. Phys.:Condens. Matter 21 395502 (2009);
         "P. Giannozzi et al., J. Phys.:Condens. Matter 29 465901 (2017);
         "P. Giannozzi et al., J. Chem. Phys. 152 154105 (2020);
          URL http://www.quantum-espresso.org", 
     in publications or presentations arising from this work. More details at
     http://www.quantum-espresso.org/quote

     Parallel version (MPI), running on     4 processors

     MPI processes distributed on     1 nodes
     23194 MiB available memory on the printing compute node when the environment starts

     Waiting for input...
     Reading input from standard input

     Current dimensions of program PWSCF are:
     Max number of different atomic species (ntypx) = 10
     Max number of k-points (npk) =  40000
     Max angular momentum in pseudopotentials (lmaxx) =  4
     file Ga.pbe-dn-kjpaw_psl.1.0.0.UPF: wavefunction(s)  4S renormalized
     Message from routine set_cutoff:
     ecutrho < 4*ecutwfc, are you sure?

     R & G space division:  proc/nbgrp/npool/nimage =       4
     Subspace diagonalization in iterative solution of the eigenvalue problem:
     a serial algorithm will be used


     Parallelization info
     --------------------
     sticks:   dense  smooth     PW     G-vecs:    dense   smooth      PW
     Min         250     250     94                10432    10432    2498
     Max         251     251     95                10439    10439    2503
     Sum        1003    1003    379                41745    41745   10005

     Using Slab Decomposition



     bravais-lattice index     =            4
     lattice parameter (alat)  =       6.0263  a.u.
     unit-cell volume          =     308.1662 (a.u.)^3
     number of atoms/cell      =            4
     number of atomic types    =            2
     number of electrons       =        36.00
     number of Kohn-Sham states=           18
     kinetic-energy cutoff     =     136.6667  Ry
     charge density cutoff     =     400.0000  Ry
     scf convergence threshold =      1.0E-06
     mixing beta               =       0.7000
     number of iterations used =            8  plain     mixing
     Exchange-correlation= PBE
                           (   1   4   3   4   0   0   0)

     celldm(1)=   6.026337  celldm(2)=   0.000000  celldm(3)=   1.625902
     celldm(4)=   0.000000  celldm(5)=   0.000000  celldm(6)=   0.000000

     crystal axes: (cart. coord. in units of alat)
               a(1) = (   1.000000   0.000000   0.000000 )  
               a(2) = (  -0.500000   0.866025   0.000000 )  
               a(3) = (   0.000000   0.000000   1.625902 )  

     reciprocal axes: (cart. coord. in units 2 pi/alat)
               b(1) = (  1.000000  0.577350 -0.000000 )  
               b(2) = (  0.000000  1.154701  0.000000 )  
               b(3) = (  0.000000 -0.000000  0.615043 )  


     PseudoPot. # 1 for Ga read from file:
     /home/nico-sachs/source/q-e/SSSP_1.3.0_PBE_efficiency/Ga.pbe-dn-kjpaw_psl.1.0.0.UPF
     MD5 check sum: a27b4342b1af7e5f338de752e9ed7044
     Pseudo is Projector augmented-wave + core cor, Zval = 13.0
     Generated using "atomic" code by A. Dal Corso  v.5.1
     Shape of augmentation charge: PSQ
     Using radial grid of 1205 points,  6 beta functions with: 
                l(1) =   0
                l(2) =   0
                l(3) =   1
                l(4) =   1
                l(5) =   2
                l(6) =   2
     Q(r) pseudized with 0 coefficients 


     PseudoPot. # 2 for N  read from file:
     /home/nico-sachs/source/q-e/SSSP_1.3.0_PBE_efficiency/N.pbe-n-radius_5.UPF
     MD5 check sum: 16739722b17309cd8fe442a2ace49922
     Pseudo is Ultrasoft + core correction, Zval =  5.0
     Generated using "atomic" code by A. Dal Corso  v.5.1
     Using radial grid of 1085 points,  4 beta functions with: 
                l(1) =   0
                l(2) =   0
                l(3) =   1
                l(4) =   1
     Q(r) pseudized with 0 coefficients 


     atomic species   valence    mass     pseudopotential
     Ga               13.00    69.72300     Ga( 1.00)
     N                 5.00    14.00700     N ( 1.00)

     12 Sym. Ops. (no inversion) found ( 6 have fractional translation)



   Cartesian axes

     site n.     atom                  positions (alat units)
         1        Ga     tau(   1) = (  -0.0000000   0.5773503   0.0000000  )
         2        Ga     tau(   2) = (   0.5000000   0.2886751   0.8129508  )
         3        N      tau(   3) = (  -0.0000000   0.5773503   0.6097131  )
         4        N      tau(   4) = (   0.5000000   0.2886751   1.4226638  )

     number of k points=    21
                       cart. coord. in units 2pi/alat
        k(    1) = (   0.0000000   0.0000000   0.0000000), wk =   0.0138889
        k(    2) = (   0.0000000   0.0000000   0.1537608), wk =   0.0277778
        k(    3) = (   0.0000000   0.0000000  -0.3075217), wk =   0.0138889
        k(    4) = (   0.0000000   0.1924501   0.0000000), wk =   0.0833333
        k(    5) = (   0.0000000   0.1924501   0.1537608), wk =   0.1666667
        k(    6) = (   0.0000000   0.1924501  -0.3075217), wk =   0.0833333
        k(    7) = (   0.0000000   0.3849002   0.0000000), wk =   0.0833333
        k(    8) = (   0.0000000   0.3849002   0.1537608), wk =   0.1666667
        k(    9) = (   0.0000000   0.3849002  -0.3075217), wk =   0.0833333
        k(   10) = (   0.0000000  -0.5773503   0.0000000), wk =   0.0416667
        k(   11) = (   0.0000000  -0.5773503   0.1537608), wk =   0.0833333
        k(   12) = (   0.0000000  -0.5773503  -0.3075217), wk =   0.0416667
        k(   13) = (   0.1666667   0.2886751   0.0000000), wk =   0.0833333
        k(   14) = (   0.1666667   0.2886751   0.1537608), wk =   0.1666667
        k(   15) = (   0.1666667   0.2886751  -0.3075217), wk =   0.0833333
        k(   16) = (   0.1666667   0.4811252   0.0000000), wk =   0.1666667
        k(   17) = (   0.1666667   0.4811252   0.1537608), wk =   0.3333333
        k(   18) = (   0.1666667   0.4811252  -0.3075217), wk =   0.1666667
        k(   19) = (   0.3333333   0.5773503   0.0000000), wk =   0.0277778
        k(   20) = (   0.3333333   0.5773503   0.1537608), wk =   0.0555556
        k(   21) = (   0.3333333   0.5773503  -0.3075217), wk =   0.0277778

     Dense  grid:    41745 G-vectors     FFT dimensions: (  40,  40,  64)

     Estimated max dynamical RAM per process >      55.85 MB

     Estimated total dynamical RAM >     223.40 MB

     Initial potential from superposition of free atoms

     starting charge      35.9941, renormalised to      36.0000
     Starting wfcs are   26 randomized atomic wfcs
     Checking if some PAW data can be deallocated... 

     total cpu time spent up to now is        2.0 secs

     Self-consistent Calculation

     iteration #  1     ecut=   136.67 Ry     beta= 0.70
     CG style diagonalization
     ethr =  1.00E-02,  avg # of iterations =  2.0

     total cpu time spent up to now is        4.4 secs

     total energy              =    -595.58068647 Ry
     estimated scf accuracy    <       1.11331468 Ry

     iteration #  2     ecut=   136.67 Ry     beta= 0.70
     CG style diagonalization
     ethr =  3.09E-03,  avg # of iterations =  4.8

     total cpu time spent up to now is        9.2 secs

     total energy              =    -596.03632521 Ry
     estimated scf accuracy    <       1.06532790 Ry

     iteration #  3     ecut=   136.67 Ry     beta= 0.70
     CG style diagonalization
     ethr =  2.96E-03,  avg # of iterations =  3.8

     total cpu time spent up to now is       13.0 secs

     total energy              =    -596.21934363 Ry
     estimated scf accuracy    <       0.00799361 Ry

     iteration #  4     ecut=   136.67 Ry     beta= 0.70
     CG style diagonalization
     c_bands:  1 eigenvalues not converged
     c_bands:  2 eigenvalues not converged
     c_bands:  1 eigenvalues not converged
     c_bands:  1 eigenvalues not converged
     c_bands:  1 eigenvalues not converged
     c_bands:  2 eigenvalues not converged
     c_bands:  1 eigenvalues not converged
     c_bands:  1 eigenvalues not converged
     c_bands:  1 eigenvalues not converged
     ethr =  2.22E-05,  avg # of iterations =  9.7

     total cpu time spent up to now is       22.7 secs

     total energy              =    -596.36020268 Ry
     estimated scf accuracy    <       0.03775161 Ry

     iteration #  5     ecut=   136.67 Ry     beta= 0.70
     CG style diagonalization
     ethr =  2.22E-05,  avg # of iterations =  4.4

     total cpu time spent up to now is       27.8 secs

     total energy              =    -596.36196944 Ry
     estimated scf accuracy    <       0.06520185 Ry

     iteration #  6     ecut=   136.67 Ry     beta= 0.70
     CG style diagonalization
     ethr =  2.22E-05,  avg # of iterations =  5.5

     total cpu time spent up to now is       34.2 secs

     total energy              =    -596.36815026 Ry
     estimated scf accuracy    <       0.03074579 Ry

     iteration #  7     ecut=   136.67 Ry     beta= 0.70
     CG style diagonalization
     ethr =  2.22E-05,  avg # of iterations =  3.9

     total cpu time spent up to now is       38.6 secs

     total energy              =    -596.36901038 Ry
     estimated scf accuracy    <       0.01356331 Ry

     iteration #  8     ecut=   136.67 Ry     beta= 0.70
     CG style diagonalization
     ethr =  2.22E-05,  avg # of iterations =  3.1

     total cpu time spent up to now is       42.3 secs

     total energy              =    -596.37002888 Ry
     estimated scf accuracy    <       0.00826016 Ry

     iteration #  9     ecut=   136.67 Ry     beta= 0.70
     CG style diagonalization
     ethr =  2.22E-05,  avg # of iterations =  3.0

     total cpu time spent up to now is       45.9 secs

     total energy              =    -596.36713884 Ry
     estimated scf accuracy    <       0.01085411 Ry

     iteration # 10     ecut=   136.67 Ry     beta= 0.70
     CG style diagonalization
     ethr =  2.22E-05,  avg # of iterations =  3.9

     total cpu time spent up to now is       50.5 secs

     total energy              =    -596.36843925 Ry
     estimated scf accuracy    <       0.00256315 Ry

     iteration # 11     ecut=   136.67 Ry     beta= 0.70
     CG style diagonalization
     ethr =  7.12E-06,  avg # of iterations =  3.8

     total cpu time spent up to now is       55.0 secs

     total energy              =    -596.36935324 Ry
     estimated scf accuracy    <       0.00045335 Ry

     iteration # 12     ecut=   136.67 Ry     beta= 0.70
     CG style diagonalization
     ethr =  1.26E-06,  avg # of iterations =  6.3

     total cpu time spent up to now is       62.1 secs

     total energy              =    -596.37007908 Ry
     estimated scf accuracy    <       0.00063834 Ry

     iteration # 13     ecut=   136.67 Ry     beta= 0.70
     CG style diagonalization
     ethr =  1.26E-06,  avg # of iterations =  3.7

     total cpu time spent up to now is       66.3 secs

     total energy              =    -596.37023165 Ry
     estimated scf accuracy    <       0.00075595 Ry

     iteration # 14     ecut=   136.67 Ry     beta= 0.70
     CG style diagonalization
     ethr =  1.26E-06,  avg # of iterations =  3.2

     total cpu time spent up to now is       70.2 secs

     total energy              =    -596.37042696 Ry
     estimated scf accuracy    <       0.00086681 Ry

     iteration # 15     ecut=   136.67 Ry     beta= 0.70
     CG style diagonalization
     ethr =  1.26E-06,  avg # of iterations =  3.4

     total cpu time spent up to now is       74.4 secs

     total energy              =    -596.37055298 Ry
     estimated scf accuracy    <       0.00155009 Ry

     iteration # 16     ecut=   136.67 Ry     beta= 0.70
     CG style diagonalization
     ethr =  1.26E-06,  avg # of iterations =  3.1

     total cpu time spent up to now is       77.7 secs

     total energy              =    -596.37025785 Ry
     estimated scf accuracy    <       0.00170197 Ry

     iteration # 17     ecut=   136.67 Ry     beta= 0.70
     CG style diagonalization
     ethr =  1.26E-06,  avg # of iterations =  3.2

     total cpu time spent up to now is       81.1 secs

     total energy              =    -596.37010616 Ry
     estimated scf accuracy    <       0.00100650 Ry

     iteration # 18     ecut=   136.67 Ry     beta= 0.70
     CG style diagonalization
     ethr =  1.26E-06,  avg # of iterations =  6.2

     total cpu time spent up to now is       87.5 secs

     total energy              =    -596.37070005 Ry
     estimated scf accuracy    <       0.00097060 Ry

     iteration # 19     ecut=   136.67 Ry     beta= 0.70
     CG style diagonalization
     ethr =  1.26E-06,  avg # of iterations =  3.8

     total cpu time spent up to now is       91.3 secs

     total energy              =    -596.37032779 Ry
     estimated scf accuracy    <       0.00112500 Ry

     iteration # 20     ecut=   136.67 Ry     beta= 0.70
     CG style diagonalization
     ethr =  1.26E-06,  avg # of iterations =  3.1

     total cpu time spent up to now is       94.5 secs

     total energy              =    -596.37017354 Ry
     estimated scf accuracy    <       0.00068138 Ry

     iteration # 21     ecut=   136.67 Ry     beta= 0.70
     CG style diagonalization
     ethr =  1.26E-06,  avg # of iterations =  3.0

     total cpu time spent up to now is       97.6 secs

     total energy              =    -596.37008972 Ry
     estimated scf accuracy    <       0.00051547 Ry

     iteration # 22     ecut=   136.67 Ry     beta= 0.70
     CG style diagonalization
     ethr =  1.26E-06,  avg # of iterations =  3.0

     total cpu time spent up to now is      100.7 secs

     total energy              =    -596.36996451 Ry
     estimated scf accuracy    <       0.00029698 Ry

     iteration # 23     ecut=   136.67 Ry     beta= 0.70
     CG style diagonalization
     ethr =  8.25E-07,  avg # of iterations =  3.7

     total cpu time spent up to now is      104.5 secs

     total energy              =    -596.37002179 Ry
     estimated scf accuracy    <       0.00001759 Ry

     iteration # 24     ecut=   136.67 Ry     beta= 0.70
     CG style diagonalization
     ethr =  4.89E-08,  avg # of iterations =  9.1

     total cpu time spent up to now is      113.5 secs

     total energy              =    -596.37012798 Ry
     estimated scf accuracy    <       0.00001499 Ry

     iteration # 25     ecut=   136.67 Ry     beta= 0.70
     CG style diagonalization
     ethr =  4.17E-08,  avg # of iterations =  5.4

     total cpu time spent up to now is      119.0 secs

     total energy              =    -596.37014535 Ry
     estimated scf accuracy    <       0.00002363 Ry

     iteration # 26     ecut=   136.67 Ry     beta= 0.70
     CG style diagonalization
     ethr =  4.17E-08,  avg # of iterations =  4.0

     total cpu time spent up to now is      123.1 secs

     total energy              =    -596.37015151 Ry
     estimated scf accuracy    <       0.00003514 Ry

     iteration # 27     ecut=   136.67 Ry     beta= 0.70
     CG style diagonalization
     ethr =  4.17E-08,  avg # of iterations =  3.3

     total cpu time spent up to now is      126.6 secs

     total energy              =    -596.37016289 Ry
     estimated scf accuracy    <       0.00003947 Ry

     iteration # 28     ecut=   136.67 Ry     beta= 0.70
     CG style diagonalization
     ethr =  4.17E-08,  avg # of iterations =  3.6

     total cpu time spent up to now is      130.4 secs

     total energy              =    -596.37017215 Ry
     estimated scf accuracy    <       0.00006359 Ry

     iteration # 29     ecut=   136.67 Ry     beta= 0.70
     CG style diagonalization
     ethr =  4.17E-08,  avg # of iterations =  3.7

     total cpu time spent up to now is      134.2 secs

     total energy              =    -596.37017389 Ry
     estimated scf accuracy    <       0.00008616 Ry

     iteration # 30     ecut=   136.67 Ry     beta= 0.70
     CG style diagonalization
     ethr =  4.17E-08,  avg # of iterations =  3.4

     total cpu time spent up to now is      137.7 secs

     total energy              =    -596.37017055 Ry
     estimated scf accuracy    <       0.00009456 Ry

     iteration # 31     ecut=   136.67 Ry     beta= 0.70
     CG style diagonalization
     ethr =  4.17E-08,  avg # of iterations =  3.1

     total cpu time spent up to now is      141.0 secs

     total energy              =    -596.37017475 Ry
     estimated scf accuracy    <       0.00008387 Ry

     iteration # 32     ecut=   136.67 Ry     beta= 0.70
     CG style diagonalization
     ethr =  4.17E-08,  avg # of iterations =  3.0

     total cpu time spent up to now is      144.2 secs

     total energy              =    -596.37016047 Ry
     estimated scf accuracy    <       0.00011994 Ry

     iteration # 33     ecut=   136.67 Ry     beta= 0.70
     CG style diagonalization
     ethr =  4.17E-08,  avg # of iterations =  3.0

     total cpu time spent up to now is      147.3 secs

     total energy              =    -596.37016666 Ry
     estimated scf accuracy    <       0.00008858 Ry

     iteration # 34     ecut=   136.67 Ry     beta= 0.70
     CG style diagonalization
     ethr =  4.17E-08,  avg # of iterations =  3.0

     total cpu time spent up to now is      150.5 secs

     total energy              =    -596.37015281 Ry
     estimated scf accuracy    <       0.00012100 Ry

     iteration # 35     ecut=   136.67 Ry     beta= 0.70
     CG style diagonalization
     ethr =  4.17E-08,  avg # of iterations =  3.0

     total cpu time spent up to now is      153.7 secs

     total energy              =    -596.37014780 Ry
     estimated scf accuracy    <       0.00005492 Ry

     iteration # 36     ecut=   136.67 Ry     beta= 0.70
     CG style diagonalization
     ethr =  4.17E-08,  avg # of iterations =  3.1

     total cpu time spent up to now is      156.9 secs

     total energy              =    -596.37016198 Ry
     estimated scf accuracy    <       0.00003547 Ry

     iteration # 37     ecut=   136.67 Ry     beta= 0.70
     CG style diagonalization
     ethr =  4.17E-08,  avg # of iterations =  3.6

     total cpu time spent up to now is      160.8 secs

     total energy              =    -596.37015769 Ry
     estimated scf accuracy    <       0.00009856 Ry

     iteration # 38     ecut=   136.67 Ry     beta= 0.70
     CG style diagonalization
     ethr =  4.17E-08,  avg # of iterations =  3.2

     total cpu time spent up to now is      164.2 secs

     total energy              =    -596.37013104 Ry
     estimated scf accuracy    <       0.00008231 Ry

     iteration # 39     ecut=   136.67 Ry     beta= 0.70
     CG style diagonalization
     ethr =  4.17E-08,  avg # of iterations =  4.4

     total cpu time spent up to now is      168.9 secs

     total energy              =    -596.37013749 Ry
     estimated scf accuracy    <       0.00000438 Ry

     iteration # 40     ecut=   136.67 Ry     beta= 0.70
     CG style diagonalization
     ethr =  1.22E-08,  avg # of iterations =  5.4

     total cpu time spent up to now is      175.3 secs

     total energy              =    -596.37014047 Ry
     estimated scf accuracy    <       0.00000364 Ry

     iteration # 41     ecut=   136.67 Ry     beta= 0.70
     CG style diagonalization
     ethr =  1.01E-08,  avg # of iterations =  4.2

     total cpu time spent up to now is      180.0 secs

     total energy              =    -596.37014103 Ry
     estimated scf accuracy    <       0.00000108 Ry

     iteration # 42     ecut=   136.67 Ry     beta= 0.70
     CG style diagonalization
     ethr =  3.01E-09,  avg # of iterations =  6.0

     total cpu time spent up to now is      186.3 secs

     End of self-consistent calculation

          k = 0.0000 0.0000 0.0000 (  8353 PWs)   bands (ev):

    -6.2588  -5.3499  -3.7567  -3.7358  -3.7358  -3.6738  -3.6738  -3.4877
    -3.4877  -3.3883  -3.3883  -2.1334   2.6385   8.6784   8.6784   9.6631
     9.7253   9.7253

          k = 0.0000 0.0000 0.1538 (  8346 PWs)   bands (ev):

    -6.0832  -5.4225  -3.7321  -3.7321  -3.6997  -3.6878  -3.6878  -3.4682
    -3.4682  -3.3983  -3.3983  -2.6851   3.6930   8.1703   8.8249   8.8249
     9.5653   9.5653

          k = 0.0000 0.0000-0.3075 (  8304 PWs)   bands (ev):

    -5.6973  -5.6973  -3.7149  -3.7149  -3.7149  -3.7149  -3.4287  -3.4287
    -3.4287  -3.4287  -3.4033  -3.4033   5.8629   5.8629   9.1883   9.1883
     9.1883   9.1883

          k = 0.0000 0.1925 0.0000 (  8323 PWs)   bands (ev):

    -6.0072  -5.2917  -3.7238  -3.7021  -3.6593  -3.6242  -3.6233  -3.5088
    -3.4864  -3.4246  -3.3828  -1.9489   3.0229   7.0023   8.0048   8.1716
     9.3761   9.4888

          k = 0.0000 0.1925 0.1538 (  8307 PWs)   bands (ev):

    -5.8565  -5.3411  -3.7143  -3.6943  -3.6655  -3.6383  -3.5999  -3.4714
    -3.4682  -3.4252  -3.3952  -2.4620   3.9348   7.1182   7.4486   8.3483
     9.0107   9.2772

          k = 0.0000 0.1925-0.3075 (  8290 PWs)   bands (ev):

    -5.5437  -5.5437  -3.6897  -3.6897  -3.6698  -3.6698  -3.5126  -3.5126
    -3.4289  -3.4289  -3.1637  -3.1637   5.6988   5.6988   8.0826   8.0826
     8.7955   8.7955

          k = 0.0000 0.3849 0.0000 (  8304 PWs)   bands (ev):

    -5.5468  -5.2134  -3.6864  -3.6672  -3.5892  -3.5261  -3.5242  -3.4904
    -3.4417  -3.3718  -3.0708  -1.5868   3.7564   4.8348   5.8328   7.3414
     8.4332   8.9907

          k = 0.0000 0.3849 0.1538 (  8306 PWs)   bands (ev):

    -5.4620  -5.2268  -3.6939  -3.6452  -3.6213  -3.5426  -3.5256  -3.4737
    -3.4345  -3.3857  -2.9543  -1.9424   3.7680   5.0292   6.0364   7.5543
     8.5353   8.7130

          k = 0.0000 0.3849-0.3075 (  8328 PWs)   bands (ev):

    -5.3070  -5.3070  -3.6777  -3.6777  -3.5923  -3.5923  -3.4917  -3.4917
    -3.4132  -3.4132  -2.5604  -2.5604   4.2521   4.2521   7.6316   7.6316
     8.1023   8.1023

          k = 0.0000-0.5774 0.0000 (  8292 PWs)   bands (ev):

    -5.3676  -5.1924  -3.6895  -3.6655  -3.5713  -3.5277  -3.4798  -3.4736
    -3.3979  -3.3629  -2.2493  -1.7102   3.2795   4.4588   5.4919   6.9799
     7.4892   8.7471

          k = 0.0000-0.5774 0.1538 (  8308 PWs)   bands (ev):

    -5.3165  -5.1926  -3.7021  -3.6365  -3.6138  -3.5307  -3.5018  -3.4333
    -3.3965  -3.3753  -2.1938  -1.8054   3.0119   3.8641   6.4148   7.2058
     8.0180   8.4457

          k = 0.0000-0.5774-0.3075 (  8336 PWs)   bands (ev):

    -5.2283  -5.2283  -3.6916  -3.6916  -3.5665  -3.5665  -3.4572  -3.4572
    -3.3905  -3.3905  -2.0226  -2.0226   3.1288   3.1288   7.7894   7.7894
     7.8154   7.8154

          k = 0.1667 0.2887 0.0000 (  8307 PWs)   bands (ev):

    -5.6508  -5.2286  -3.6911  -3.6684  -3.5999  -3.5759  -3.5277  -3.4668
    -3.4560  -3.4100  -3.2504  -1.6544   3.6601   5.6783   6.0555   7.3247
     8.7160   8.8010

          k = 0.1667 0.2887 0.1538 (  8306 PWs)   bands (ev):

    -5.5481  -5.2492  -3.6738  -3.6706  -3.6142  -3.6007  -3.5066  -3.5007
    -3.4332  -3.4172  -3.1431  -2.0737   4.0807   5.7186   6.2991   7.2867
     8.4074   8.7908

          k = 0.1667 0.2887-0.3075 (  8316 PWs)   bands (ev):

    -5.3552  -5.3552  -3.6536  -3.6536  -3.6263  -3.6263  -3.5225  -3.5225
    -3.4184  -3.4184  -2.7492  -2.7492   4.8876   4.8876   7.6060   7.6060
     7.9163   7.9163

          k = 0.1667 0.4811 0.0000 (  8317 PWs)   bands (ev):

    -5.3567  -5.1975  -3.7123  -3.6298  -3.5418  -3.5268  -3.5056  -3.4852
    -3.4235  -3.3895  -2.4127  -1.5017   3.7172   4.6719   5.5240   6.0983
     7.6981   7.9655

          k = 0.1667 0.4811 0.1538 (  8314 PWs)   bands (ev):

    -5.3067  -5.1948  -3.6819  -3.6469  -3.5927  -3.5285  -3.5066  -3.4643
    -3.4160  -3.4060  -2.3187  -1.6734   3.4525   4.2395   5.9659   6.7331
     7.5273   8.2188

          k = 0.1667 0.4811-0.3075 (  8322 PWs)   bands (ev):

    -5.2235  -5.2235  -3.6565  -3.6565  -3.5864  -3.5864  -3.4847  -3.4847
    -3.4085  -3.4085  -2.0369  -2.0369   3.5819   3.5819   6.6759   6.6759
     8.0607   8.0607

          k = 0.3333 0.5774 0.0000 (  8337 PWs)   bands (ev):

    -5.2334  -5.2334  -3.7413  -3.5342  -3.5342  -3.5158  -3.5020  -3.5020
    -3.4550  -3.4077  -1.7152  -1.7152   4.3957   4.3957   4.4462   6.7168
     6.7168   7.0342

          k = 0.3333 0.5774 0.1538 (  8328 PWs)   bands (ev):

    -5.2107  -5.2107  -3.7011  -3.5876  -3.5876  -3.5246  -3.4614  -3.4614
    -3.4595  -3.4436  -1.7095  -1.7095   3.9081   3.9081   4.7445   6.5287
     7.5195   7.5195

          k = 0.3333 0.5774-0.3075 (  8310 PWs)   bands (ev):

    -5.1875  -5.1875  -3.6201  -3.6201  -3.6022  -3.6022  -3.4668  -3.4668
    -3.4423  -3.4423  -1.7037  -1.7037   3.5646   3.5646   5.5442   5.5442
     8.2339   8.2339

     highest occupied level (ev):     9.7253

!    total energy              =    -596.37014236 Ry
     estimated scf accuracy    <       0.00000008 Ry

     The total energy is the sum of the following terms:
     one-electron contribution =    -181.38226427 Ry
     hartree contribution      =     130.16308221 Ry
     xc contribution           =     -87.88218158 Ry
     ewald contribution        =    -233.28276133 Ry
     one-center paw contrib.   =    -223.98601739 Ry

     convergence has been achieved in  42 iterations

     Forces acting on atoms (cartesian axes, Ry/au):

     atom    1 type  1   force =     0.00000000    0.00000000   -0.00485321
     atom    2 type  1   force =     0.00000000    0.00000000   -0.00485321
     atom    3 type  2   force =     0.00000000    0.00000000    0.00485321
     atom    4 type  2   force =    -0.00000000   -0.00000000    0.00485321

     Total force =     0.009706     Total SCF correction =     0.000101


     Computing stress (Cartesian axis) and pressure

          total   stress  (Ry/bohr**3)                   (kbar)     P=       54.17
   0.00032970  -0.00000000   0.00000000           48.50       -0.00        0.00
  -0.00000000   0.00032970   0.00000000           -0.00       48.50        0.00
   0.00000000   0.00000000   0.00044533            0.00        0.00       65.51


     Writing all to output data dir /home/nico-sachs/source/q-e/tempdir/gan.save/ :
     XML data file, charge density, pseudopotentials, collected wavefunctions

     init_run     :      1.72s CPU      1.79s WALL (       1 calls)
     electrons    :    180.14s CPU    184.37s WALL (       1 calls)
     forces       :      0.52s CPU      0.52s WALL (       1 calls)
     stress       :      1.94s CPU      1.95s WALL (       1 calls)

     Called by init_run:
     wfcinit      :      1.00s CPU      1.03s WALL (       1 calls)
     potinit      :      0.25s CPU      0.28s WALL (       1 calls)
     hinit0       :      0.34s CPU      0.35s WALL (       1 calls)

     Called by electrons:
     c_bands      :    155.53s CPU    159.39s WALL (      42 calls)
     sum_band     :     11.94s CPU     12.29s WALL (      42 calls)
     v_of_rho     :      0.52s CPU      0.53s WALL (      43 calls)
     newd         :      1.87s CPU      1.89s WALL (      43 calls)
     PAW_pot      :     10.36s CPU     10.40s WALL (      43 calls)
     mix_rho      :      0.15s CPU      0.15s WALL (      42 calls)

     Called by c_bands:
     init_us_2    :      2.08s CPU      2.10s WALL (    1827 calls)
     ccgdiagg     :    127.84s CPU    131.12s WALL (     882 calls)
     wfcrot       :     27.08s CPU     27.67s WALL (     882 calls)

     Called by *cgdiagg:
     h_psi        :     83.59s CPU     86.57s WALL (   50211 calls)
     s_psi        :     30.83s CPU     31.31s WALL (   99540 calls)

     Called by h_psi:
     h_psi:calbec :     23.83s CPU     24.76s WALL (   50211 calls)
     vloc_psi     :     40.90s CPU     42.52s WALL (   50211 calls)
                                        0.00s GPU  (   50211 calls)
     add_vuspsi   :     18.01s CPU     18.43s WALL (   50211 calls)
     hs_1psi      :     80.22s CPU     82.98s WALL (   49329 calls)
     s_1psi       :     32.61s CPU     32.95s WALL (   49329 calls)

     General routines
     calbec       :     48.86s CPU     50.07s WALL (  100779 calls)
     fft          :      0.38s CPU      0.39s WALL (     498 calls)
     ffts         :      0.02s CPU      0.02s WALL (      42 calls)
     fftw         :     37.69s CPU     39.36s WALL (  146622 calls)

     Parallel routines

     PWSCF        :   3m 4.51s CPU   3m 8.87s WALL


   This run was terminated on:  15:44: 9  27Jan2026            

=------------------------------------------------------------------------------=
   JOB DONE.
=------------------------------------------------------------------------------=
