
     Program PHONON v.7.5 starts on 24Feb2026 at 18:11:42 
        Git branch: develop
        Last git commit: 797f00f1d3f390f642411209b167af6668f3cb83
        Last git commit date: Mon Dec 8 18:25:28 2025 +0000
        Last git commit subject: Merge branch 'uniform_uv' into 'develop'

     This program is part of the open-source Quantum ESPRESSO suite
     for quantum simulation of materials; please cite
         "P. Giannozzi et al., J. Phys.:Condens. Matter 21 395502 (2009);
         "P. Giannozzi et al., J. Phys.:Condens. Matter 29 465901 (2017);
         "P. Giannozzi et al., J. Chem. Phys. 152 154105 (2020);
          URL http://www.quantum-espresso.org", 
     in publications or presentations arising from this work. More details at
     http://www.quantum-espresso.org/quote

     Parallel version (MPI), running on    24 processors

     MPI processes distributed on     1 nodes
     93226 MiB available memory on the printing compute node when the environment starts

     Waiting for input...
     Reading input from standard input
      Title line not specified: using 'default'.

     Reading xml data from directory:

     /home/sachs/software/q-e/tempdir/gan.save/

     R & G space division:  proc/nbgrp/npool/nimage =      24
     Subspace diagonalization in iterative solution of the eigenvalue problem:
     a serial algorithm will be used


     IMPORTANT: XC functional enforced from input :
     Exchange-correlation= PBESOL
                           (   1   4  10   8   0   0   0)
     Any further DFT definition will be discarded
     Please, verify this is what you really want


     Parallelization info
     --------------------
     sticks:   dense  smooth     PW     G-vecs:    dense   smooth      PW
     Min          62      41     12                 3170     1725     288
     Max          63      42     13                 3175     1730     297
     Sum        1507    1003    301                76139    41469    7031

     Using Slab Decomposition

     Reading collected, re-writing distributed wavefunctions in /home/sachs/software/q-e/tempdir/

     Number and degeneracy of irreps per q-point
       N         xq(1)         xq(2)         xq(3)   N irreps
       1   0.000000000   0.000000000   0.000000000       8
        1   1   1   1   2   2   2   2

     Calculation of q =    0.0000000   0.0000000   0.0000000

     default                                                                    

     bravais-lattice index     =            4
     lattice parameter (alat)  =       6.0162  a.u.
     unit-cell volume          =     306.7178 (a.u.)^3
     number of atoms/cell      =            4
     number of atomic types    =            2
     kinetic-energy cut-off    =     100.0000  Ry
     charge density cut-off    =     600.0000  Ry
     convergence threshold     =      1.0E-13
     beta                      =       0.3000
     number of iterations used =            4
     Exchange-correlation= PBESOL
                           (   1   4  10   8   0   0   0)


     celldm(1)=    6.01621  celldm(2)=    0.00000  celldm(3)=    1.62645
     celldm(4)=    0.00000  celldm(5)=    0.00000  celldm(6)=    0.00000

     crystal axes: (cart. coord. in units of alat)
               a(1) = (  1.0000  0.0000  0.0000 )  
               a(2) = ( -0.5000  0.8660  0.0000 )  
               a(3) = (  0.0000  0.0000  1.6264 )  

     reciprocal axes: (cart. coord. in units 2 pi/alat)
               b(1) = (  1.0000  0.5774 -0.0000 )  
               b(2) = (  0.0000  1.1547  0.0000 )  
               b(3) = (  0.0000 -0.0000  0.6148 )  


     Atoms inside the unit cell: 

     Cartesian axes

     site n.  atom      mass           positions (alat units)
        1  Ga     69.7230   tau(    1) = (   -0.00000    0.57735    0.00000  )
        2  Ga     69.7230   tau(    2) = (    0.50000    0.28868    0.81322  )
        3  N      14.0070   tau(    3) = (   -0.00000    0.57735    0.60992  )
        4  N      14.0070   tau(    4) = (    0.50000    0.28868    1.42314  )

     Computing dynamical matrix for 
                    q = (   0.0000000   0.0000000   0.0000000 )

     13 Sym.Ops. (with q -> -q+G )


     G cutoff =  550.0946  (   3173 G-vectors)     FFT grid: ( 48, 48, 80)
     G cutoff =  366.7297  (   1728 G-vectors)  smooth grid: ( 40, 40, 64)
     number of k points=  1248

     PseudoPot. # 1 for Ga read from file:
     /home/sachs/software/q-e/Pseudofolder/nc-sr-04_pbesol_standard_upf/Ga.upf
     MD5 check sum: 3b2828b26f3ae6b9eab8bf4a0fe74f9e
     Pseudo is Norm-conserving + core correction, Zval = 13.0
     Generated using ONCVPSP code by D. R. Hamann
     Using radial grid of 1902 points,  6 beta functions with: 
                l(1) =   0
                l(2) =   0
                l(3) =   1
                l(4) =   1
                l(5) =   2
                l(6) =   2

     PseudoPot. # 2 for N  read from file:
     /home/sachs/software/q-e/Pseudofolder/nc-sr-04_pbesol_standard_upf/N.upf
     MD5 check sum: 707446d8d13ad7070fc4441e6fbba7f1
     Pseudo is Norm-conserving + core correction, Zval =  5.0
     Generated using ONCVPSP code by D. R. Hamann
     Using radial grid of 1058 points,  4 beta functions with: 
                l(1) =   0
                l(2) =   0
                l(3) =   1
                l(4) =   1

     Mode symmetry, C_6v (6mm)  point group:


     Electric field:
     Dielectric constant
     Born effective charges as d Force / d E


     Atomic displacements:
     There are    8 irreducible representations

     Representation     1      1 modes -  To be done

     Representation     2      1 modes -  To be done

     Representation     3      1 modes -  To be done

     Representation     4      1 modes -  To be done

     Representation     5      2 modes -  To be done

     Representation     6      2 modes -  To be done

     Representation     7      2 modes -  To be done

     Representation     8      2 modes -  To be done



     Alpha used in Ewald sum =   2.8000
     PHONON       :   1m 0.64s CPU   1m29.72s WALL


     Electric Fields Calculation

      iter #   1 total cpu time :  2962.4 secs   av.it.:   9.3
      thresh= 1.000E-02 alpha_mix =  0.300 |ddv_scf|^2 =  1.331E-08

      iter #   2 total cpu time :  4085.3 secs   av.it.:  17.2
      thresh= 1.154E-05 alpha_mix =  0.300 |ddv_scf|^2 =  3.902E-09

      iter #   3 total cpu time :  5272.3 secs   av.it.:  18.2
      thresh= 6.247E-06 alpha_mix =  0.300 |ddv_scf|^2 =  2.297E-10

      iter #   4 total cpu time :  6462.5 secs   av.it.:  18.3
      thresh= 1.515E-06 alpha_mix =  0.300 |ddv_scf|^2 =  1.118E-11

      iter #   5 total cpu time :  7594.9 secs   av.it.:  16.9
      thresh= 3.344E-07 alpha_mix =  0.300 |ddv_scf|^2 =  2.324E-12

      iter #   6 total cpu time :  8746.6 secs   av.it.:  17.6
      thresh= 1.524E-07 alpha_mix =  0.300 |ddv_scf|^2 =  7.100E-14

     End of electric fields calculation

          Dielectric constant in cartesian axis 

          (       5.836026469       0.000000000      -0.000000000 )
          (       0.000000000       5.836026469      -0.000000000 )
          (      -0.000000000      -0.000000000       5.985462746 )

          Effective charges (d Force / dE) in cartesian axis without acoustic sum rule applied (asr)

           atom    1  Ga    Mean Z*:        2.66744
      Ex  (        2.62336       -0.00000        0.00000 )
      Ey  (        0.00000        2.62336        0.00000 )
      Ez  (        0.00000        0.00000        2.75561 )
           atom    2  Ga    Mean Z*:        2.66744
      Ex  (        2.62336        0.00000        0.00000 )
      Ey  (       -0.00000        2.62336        0.00000 )
      Ez  (       -0.00000       -0.00000        2.75561 )
           atom    3  N     Mean Z*:       -2.67288
      Ex  (       -2.62894       -0.00000       -0.00000 )
      Ey  (        0.00000       -2.62894        0.00000 )
      Ez  (        0.00000        0.00000       -2.76075 )
           atom    4  N     Mean Z*:       -2.67288
      Ex  (       -2.62894       -0.00000        0.00000 )
      Ey  (        0.00000       -2.62894       -0.00000 )
      Ez  (       -0.00000        0.00000       -2.76075 )

          Effective charges Sum: Mean:       -0.01086
             -0.01116       -0.00000       -0.00000
             -0.00000       -0.01116        0.00000
              0.00000        0.00000       -0.01027

          Effective charges (d Force / dE) in cartesian axis with asr applied: 
           atom    1  Ga    Mean Z*:        2.67016
      E*x (        2.62615       -0.00000       -0.00000 )
      E*y (        0.00000        2.62615        0.00000 )
      E*z (        0.00000        0.00000        2.75818 )
           atom    2  Ga    Mean Z*:        2.67016
      E*x (        2.62615        0.00000       -0.00000 )
      E*y (       -0.00000        2.62615        0.00000 )
      E*z (       -0.00000       -0.00000        2.75818 )
           atom    3  N     Mean Z*:       -2.67016
      E*x (       -2.62615       -0.00000       -0.00000 )
      E*y (        0.00000       -2.62615       -0.00000 )
      E*z (        0.00000        0.00000       -2.75818 )
           atom    4  N     Mean Z*:       -2.67016
      E*x (       -2.62615       -0.00000        0.00000 )
      E*y (        0.00000       -2.62615       -0.00000 )
      E*z (       -0.00000        0.00000       -2.75818 )


     Representation #   1 mode #   1

     Self-consistent Calculation

      iter #   1 total cpu time :  9504.9 secs   av.it.:   8.2
      thresh= 1.000E-02 alpha_mix =  0.300 |ddv_scf|^2 =  4.099E-07

      iter #   2 total cpu time :  9830.4 secs   av.it.:  14.4
      thresh= 6.402E-05 alpha_mix =  0.300 |ddv_scf|^2 =  1.111E-07

      iter #   3 total cpu time : 10183.7 secs   av.it.:  15.6
      thresh= 3.333E-05 alpha_mix =  0.300 |ddv_scf|^2 =  6.055E-10

      iter #   4 total cpu time : 10545.7 secs   av.it.:  16.1
      thresh= 2.461E-06 alpha_mix =  0.300 |ddv_scf|^2 =  6.586E-11

      iter #   5 total cpu time : 10887.8 secs   av.it.:  15.3
      thresh= 8.116E-07 alpha_mix =  0.300 |ddv_scf|^2 =  7.413E-12

      iter #   6 total cpu time : 11250.7 secs   av.it.:  16.2
      thresh= 2.723E-07 alpha_mix =  0.300 |ddv_scf|^2 =  2.326E-13

      iter #   7 total cpu time : 11598.6 secs   av.it.:  15.6
      thresh= 4.823E-08 alpha_mix =  0.300 |ddv_scf|^2 =  4.424E-14

     End of self-consistent calculation

     Convergence has been achieved 


     Representation #   2 mode #   2

     Self-consistent Calculation

      iter #   1 total cpu time : 11881.8 secs   av.it.:  10.7
      thresh= 1.000E-02 alpha_mix =  0.300 |ddv_scf|^2 =  5.200E-06

      iter #   2 total cpu time : 12231.4 secs   av.it.:  15.3
      thresh= 2.280E-04 alpha_mix =  0.300 |ddv_scf|^2 =  9.242E-07

      iter #   3 total cpu time : 12592.1 secs   av.it.:  16.2
      thresh= 9.614E-05 alpha_mix =  0.300 |ddv_scf|^2 =  9.918E-09

      iter #   4 total cpu time : 12942.8 secs   av.it.:  15.7
      thresh= 9.959E-06 alpha_mix =  0.300 |ddv_scf|^2 =  1.516E-10

      iter #   5 total cpu time : 13273.9 secs   av.it.:  14.7
      thresh= 1.231E-06 alpha_mix =  0.300 |ddv_scf|^2 =  4.337E-11

      iter #   6 total cpu time : 13613.3 secs   av.it.:  15.2
      thresh= 6.585E-07 alpha_mix =  0.300 |ddv_scf|^2 =  1.928E-12

      iter #   7 total cpu time : 13959.8 secs   av.it.:  15.5
      thresh= 1.389E-07 alpha_mix =  0.300 |ddv_scf|^2 =  1.061E-13

      iter #   8 total cpu time : 14306.9 secs   av.it.:  15.6
      thresh= 3.257E-08 alpha_mix =  0.300 |ddv_scf|^2 =  1.387E-14

     End of self-consistent calculation

     Convergence has been achieved 


     Representation #   3 mode #   3

     Self-consistent Calculation

      iter #   1 total cpu time : 14613.4 secs   av.it.:  11.5
      thresh= 1.000E-02 alpha_mix =  0.300 |ddv_scf|^2 =  6.946E-05

      iter #   2 total cpu time : 14947.1 secs   av.it.:  14.9
      thresh= 8.334E-04 alpha_mix =  0.300 |ddv_scf|^2 =  6.925E-07

      iter #   3 total cpu time : 15299.7 secs   av.it.:  15.8
      thresh= 8.322E-05 alpha_mix =  0.300 |ddv_scf|^2 =  2.426E-07

      iter #   4 total cpu time : 15631.1 secs   av.it.:  14.8
      thresh= 4.926E-05 alpha_mix =  0.300 |ddv_scf|^2 =  3.988E-08

      iter #   5 total cpu time : 15982.1 secs   av.it.:  15.6
      thresh= 1.997E-05 alpha_mix =  0.300 |ddv_scf|^2 =  2.719E-09

      iter #   6 total cpu time : 16339.4 secs   av.it.:  16.0
      thresh= 5.214E-06 alpha_mix =  0.300 |ddv_scf|^2 =  5.751E-11

      iter #   7 total cpu time : 16680.1 secs   av.it.:  15.1
      thresh= 7.583E-07 alpha_mix =  0.300 |ddv_scf|^2 =  1.672E-11

      iter #   8 total cpu time : 17043.0 secs   av.it.:  16.4
      thresh= 4.089E-07 alpha_mix =  0.300 |ddv_scf|^2 =  7.879E-13

      iter #   9 total cpu time : 17395.8 secs   av.it.:  15.8
      thresh= 8.876E-08 alpha_mix =  0.300 |ddv_scf|^2 =  1.248E-14

     End of self-consistent calculation

     Convergence has been achieved 


     Representation #   4 mode #   4

     Self-consistent Calculation

      iter #   1 total cpu time : 17642.0 secs   av.it.:   9.0
      thresh= 1.000E-02 alpha_mix =  0.300 |ddv_scf|^2 =  9.880E-06

      iter #   2 total cpu time : 17975.1 secs   av.it.:  14.1
      thresh= 3.143E-04 alpha_mix =  0.300 |ddv_scf|^2 =  1.810E-07

      iter #   3 total cpu time : 18299.2 secs   av.it.:  14.1
      thresh= 4.254E-05 alpha_mix =  0.300 |ddv_scf|^2 =  9.089E-09

      iter #   4 total cpu time : 18644.9 secs   av.it.:  15.3
      thresh= 9.534E-06 alpha_mix =  0.300 |ddv_scf|^2 =  2.253E-09

      iter #   5 total cpu time : 19007.8 secs   av.it.:  16.2
      thresh= 4.747E-06 alpha_mix =  0.300 |ddv_scf|^2 =  1.323E-10

      iter #   6 total cpu time : 19357.9 secs   av.it.:  15.7
      thresh= 1.150E-06 alpha_mix =  0.300 |ddv_scf|^2 =  8.044E-12

      iter #   7 total cpu time : 19693.9 secs   av.it.:  15.0
      thresh= 2.836E-07 alpha_mix =  0.300 |ddv_scf|^2 =  2.202E-12

      iter #   8 total cpu time : 20044.5 secs   av.it.:  15.7
      thresh= 1.484E-07 alpha_mix =  0.300 |ddv_scf|^2 =  5.540E-14

     End of self-consistent calculation

     Convergence has been achieved 


     Representation #   5 modes #   5   6

     Self-consistent Calculation

      iter #   1 total cpu time : 20511.4 secs   av.it.:   8.4
      thresh= 1.000E-02 alpha_mix =  0.300 |ddv_scf|^2 =  1.042E-07

      iter #   2 total cpu time : 21199.0 secs   av.it.:  15.7
      thresh= 3.228E-05 alpha_mix =  0.300 |ddv_scf|^2 =  2.826E-08

      iter #   3 total cpu time : 21940.2 secs   av.it.:  17.0
      thresh= 1.681E-05 alpha_mix =  0.300 |ddv_scf|^2 =  1.332E-10

      iter #   4 total cpu time : 22686.3 secs   av.it.:  17.6
      thresh= 1.154E-06 alpha_mix =  0.300 |ddv_scf|^2 =  1.487E-11

      iter #   5 total cpu time : 23416.1 secs   av.it.:  16.9
      thresh= 3.856E-07 alpha_mix =  0.300 |ddv_scf|^2 =  1.059E-12

      iter #   6 total cpu time : 24181.4 secs   av.it.:  17.6
      thresh= 1.029E-07 alpha_mix =  0.300 |ddv_scf|^2 =  5.899E-14

     End of self-consistent calculation

     Convergence has been achieved 


     Representation #   6 modes #   7   8

     Self-consistent Calculation

      iter #   1 total cpu time : 24770.8 secs   av.it.:  10.9
      thresh= 1.000E-02 alpha_mix =  0.300 |ddv_scf|^2 =  1.313E-06

      iter #   2 total cpu time : 25498.6 secs   av.it.:  16.8
      thresh= 1.146E-04 alpha_mix =  0.300 |ddv_scf|^2 =  2.325E-07

      iter #   3 total cpu time : 26267.2 secs   av.it.:  17.7
      thresh= 4.821E-05 alpha_mix =  0.300 |ddv_scf|^2 =  2.473E-09

      iter #   4 total cpu time : 27015.9 secs   av.it.:  17.0
      thresh= 4.973E-06 alpha_mix =  0.300 |ddv_scf|^2 =  3.190E-11

      iter #   5 total cpu time : 27707.5 secs   av.it.:  15.2
      thresh= 5.648E-07 alpha_mix =  0.300 |ddv_scf|^2 =  1.115E-11

      iter #   6 total cpu time : 28460.5 secs   av.it.:  17.0
      thresh= 3.339E-07 alpha_mix =  0.300 |ddv_scf|^2 =  5.927E-14

     End of self-consistent calculation

     Convergence has been achieved 


     Representation #   7 modes #   9  10

     Self-consistent Calculation

      iter #   1 total cpu time : 29068.0 secs   av.it.:  11.0
      thresh= 1.000E-02 alpha_mix =  0.300 |ddv_scf|^2 =  1.536E-06

      iter #   2 total cpu time : 29801.1 secs   av.it.:  16.8
      thresh= 1.239E-04 alpha_mix =  0.300 |ddv_scf|^2 =  2.494E-07

      iter #   3 total cpu time : 30550.6 secs   av.it.:  17.6
      thresh= 4.994E-05 alpha_mix =  0.300 |ddv_scf|^2 =  2.797E-09

      iter #   4 total cpu time : 31306.6 secs   av.it.:  17.2
      thresh= 5.288E-06 alpha_mix =  0.300 |ddv_scf|^2 =  4.918E-11

      iter #   5 total cpu time : 32004.2 secs   av.it.:  15.7
      thresh= 7.013E-07 alpha_mix =  0.300 |ddv_scf|^2 =  1.421E-11

      iter #   6 total cpu time : 32745.1 secs   av.it.:  16.9
      thresh= 3.770E-07 alpha_mix =  0.300 |ddv_scf|^2 =  6.870E-13

      iter #   7 total cpu time : 33503.5 secs   av.it.:  17.2
      thresh= 8.289E-08 alpha_mix =  0.300 |ddv_scf|^2 =  6.198E-15

     End of self-consistent calculation

     Convergence has been achieved 


     Representation #   8 modes #  11  12

     Self-consistent Calculation

      iter #   1 total cpu time : 34005.4 secs   av.it.:   8.6
      thresh= 1.000E-02 alpha_mix =  0.300 |ddv_scf|^2 =  1.312E-07

      iter #   2 total cpu time : 34717.3 secs   av.it.:  16.1
      thresh= 3.622E-05 alpha_mix =  0.300 |ddv_scf|^2 =  3.159E-08

      iter #   3 total cpu time : 35452.3 secs   av.it.:  17.1
      thresh= 1.777E-05 alpha_mix =  0.300 |ddv_scf|^2 =  3.581E-10

      iter #   4 total cpu time : 36228.7 secs   av.it.:  17.8
      thresh= 1.892E-06 alpha_mix =  0.300 |ddv_scf|^2 =  1.856E-11

      iter #   5 total cpu time : 36953.3 secs   av.it.:  16.7
      thresh= 4.308E-07 alpha_mix =  0.300 |ddv_scf|^2 =  1.753E-12

      iter #   6 total cpu time : 37710.0 secs   av.it.:  17.4
      thresh= 1.324E-07 alpha_mix =  0.300 |ddv_scf|^2 =  6.336E-14

     End of self-consistent calculation

     Convergence has been achieved 

     Number of q in the star =    1
     List of q in the star:
          1   0.000000000   0.000000000   0.000000000

          Dielectric constant in cartesian axis 

          (       5.836026469       0.000000000      -0.000000000 )
          (       0.000000000       5.836026469      -0.000000000 )
          (      -0.000000000      -0.000000000       5.985462746 )

          Effective charges (d Force / dE) in cartesian axis without acoustic sum rule applied (asr)

           atom    1  Ga    Mean Z*:        2.66744
      Ex  (        2.62336       -0.00000        0.00000 )
      Ey  (        0.00000        2.62336        0.00000 )
      Ez  (        0.00000        0.00000        2.75561 )
           atom    2  Ga    Mean Z*:        2.66744
      Ex  (        2.62336        0.00000        0.00000 )
      Ey  (       -0.00000        2.62336        0.00000 )
      Ez  (       -0.00000       -0.00000        2.75561 )
           atom    3  N     Mean Z*:       -2.67288
      Ex  (       -2.62894       -0.00000       -0.00000 )
      Ey  (        0.00000       -2.62894        0.00000 )
      Ez  (        0.00000        0.00000       -2.76075 )
           atom    4  N     Mean Z*:       -2.67288
      Ex  (       -2.62894       -0.00000        0.00000 )
      Ey  (        0.00000       -2.62894       -0.00000 )
      Ez  (       -0.00000        0.00000       -2.76075 )

          Effective charges Sum: Mean:       -0.01086
             -0.01116       -0.00000       -0.00000
             -0.00000       -0.01116        0.00000
              0.00000        0.00000       -0.01027

          Effective charges (d Force / dE) in cartesian axis with asr applied: 
           atom    1  Ga    Mean Z*:        2.67016
      E*x (        2.62615       -0.00000       -0.00000 )
      E*y (        0.00000        2.62615        0.00000 )
      E*z (        0.00000        0.00000        2.75818 )
           atom    2  Ga    Mean Z*:        2.67016
      E*x (        2.62615        0.00000       -0.00000 )
      E*y (       -0.00000        2.62615        0.00000 )
      E*z (       -0.00000       -0.00000        2.75818 )
           atom    3  N     Mean Z*:       -2.67016
      E*x (       -2.62615       -0.00000       -0.00000 )
      E*y (        0.00000       -2.62615       -0.00000 )
      E*z (        0.00000        0.00000       -2.75818 )
           atom    4  N     Mean Z*:       -2.67016
      E*x (       -2.62615       -0.00000        0.00000 )
      E*y (        0.00000       -2.62615       -0.00000 )
      E*z (       -0.00000        0.00000       -2.75818 )

     Diagonalizing the dynamical matrix

     q = (    0.000000000   0.000000000   0.000000000 ) 

 **************************************************************************
     freq (    1) =      -2.002526 [THz] =     -66.797085 [cm-1]
     freq (    2) =      -1.835066 [THz] =     -61.211204 [cm-1]
     freq (    3) =      -1.835066 [THz] =     -61.211204 [cm-1]
     freq (    4) =       3.568668 [THz] =     119.037941 [cm-1]
     freq (    5) =       3.568668 [THz] =     119.037941 [cm-1]
     freq (    6) =       9.691694 [THz] =     323.280104 [cm-1]
     freq (    7) =      16.173108 [THz] =     539.476810 [cm-1]
     freq (    8) =      16.190159 [THz] =     540.045562 [cm-1]
     freq (    9) =      16.190159 [THz] =     540.045562 [cm-1]
     freq (   10) =      16.425858 [THz] =     547.907644 [cm-1]
     freq (   11) =      16.425858 [THz] =     547.907644 [cm-1]
     freq (   12) =      20.790076 [THz] =     693.482303 [cm-1]
 **************************************************************************

     Mode symmetry, C_6v (6mm)  point group:

     freq (   1-   1) =        -66.8  [cm-1]   --> A_1             I+R
     freq (   2-   3) =        -61.2  [cm-1]   --> E_1             I+R
     freq (   4-   5) =        119.0  [cm-1]   --> E_2             R  
     freq (   6-   6) =        323.3  [cm-1]   --> B_1                
     freq (   7-   7) =        539.5  [cm-1]   --> A_1             I+R
     freq (   8-   9) =        540.0  [cm-1]   --> E_1             I+R
     freq (  10-  11) =        547.9  [cm-1]   --> E_2             R  
     freq (  12-  12) =        693.5  [cm-1]   --> B_1                

     PHONON       :     10h 1m CPU     10h28m WALL

     INITIALIZATION: 
     phq_setup    :      0.22s CPU      0.24s WALL (       1 calls)
     phq_init     :     45.06s CPU     46.16s WALL (       1 calls)

     phq_init     :     45.06s CPU     46.16s WALL (       1 calls)
     set_drhoc    :      0.06s CPU      0.06s WALL (       3 calls)
     init_vloc    :      0.01s CPU      0.01s WALL (       1 calls)
     init_us_1    :      0.00s CPU      0.00s WALL (       1 calls)
     init_us_2    :     39.30s CPU     41.87s WALL (  106080 calls)

     DIELECTRIC CONSTANT AND EFFECTIVE CHARGES:
     solve_e      :   8259.36s CPU   8657.19s WALL (       1 calls)
     dielec       :      0.28s CPU      0.66s WALL (       1 calls)
     zstar_eu     :    510.43s CPU    517.15s WALL (       1 calls)

     DYNAMICAL MATRIX:
     dynmat0      :     36.66s CPU     37.35s WALL (       1 calls)
     dynmat_us    :     36.62s CPU     37.26s WALL (       1 calls)
     d2ionq       :      0.03s CPU      0.03s WALL (       1 calls)
     dynmatcc     :      0.02s CPU      0.02s WALL (       1 calls)
     phqscf       :  27255.61s CPU  28463.34s WALL (       1 calls)
     dynmatrix    :      0.01s CPU      0.02s WALL (       1 calls)

     phqscf       :  27255.61s CPU  28463.34s WALL (       1 calls)
     solve_linter :  27155.13s CPU  28355.48s WALL (       8 calls)
     dfpt_kernel  :  32915.30s CPU  34433.31s WALL (       9 calls)
     sth_kernel   :  32844.17s CPU  34337.52s WALL (      63 calls)
     h_prec       :     38.85s CPU     40.84s WALL (   82368 calls)
     apply_dpot_b :   1206.75s CPU   1246.13s WALL (  106080 calls)
     ortho        :    121.86s CPU    125.25s WALL (  128544 calls)
     cgsolve      :  31515.80s CPU  32359.96s WALL (  128544 calls)
     incdrhoscf   :   2005.24s CPU   2142.00s WALL (  124800 calls)
                                        0.00s GPU  (  124800 calls)
     dv_of_drho   :      8.95s CPU      9.07s WALL (     100 calls)
     mix_pot      :      0.45s CPU     12.68s WALL (      63 calls)
     drhodv       :    100.46s CPU    106.21s WALL (       8 calls)
     psymdvscf    :     59.80s CPU     60.84s WALL (     126 calls)
     com_dvloc    :    247.44s CPU    253.11s WALL (   30048 calls)
                                        0.00s GPU  (   30048 calls)
     addcore      :     34.33s CPU     35.35s WALL (   15144 calls)
                                        0.00s GPU  (   15144 calls)

     dvqpsi_us    :    854.78s CPU    870.87s WALL (   29952 calls)
                                        0.00s GPU  (   29952 calls)
     dvqpsi_us_on :    191.93s CPU    193.10s WALL (   29952 calls)

     add_vuspsi   :   2672.19s CPU   2694.68s WALL ( 2513336 calls)


      General routines
     calbec       :   2992.38s CPU   3172.92s WALL ( 2589464 calls)
     fft          :    137.70s CPU    138.98s WALL (  151348 calls)
     ffts         :     54.89s CPU     57.68s WALL (   30249 calls)
     fftw         :  24477.94s CPU  25205.10s WALL (86434198 calls)
     davcio       :     31.67s CPU    570.10s WALL (  547074 calls)
     write_rec    :      0.21s CPU     12.99s WALL (      71 calls)

      Additional routines
     ch_psi       :  30490.58s CPU  31310.85s WALL ( 2513336 calls)
     last         :   2217.74s CPU   2260.83s WALL ( 2513336 calls)
     Hesh         :     48.73s CPU     49.94s WALL ( 2513336 calls)
     ch_psi_all_k :   2154.84s CPU   2197.06s WALL ( 2513336 calls)
                                        0.00s GPU  ( 2513336 calls)
     h_psi_bgrp   :  28128.09s CPU  28904.18s WALL ( 2513336 calls)
     h_psi        :  28120.07s CPU  28896.91s WALL ( 2513336 calls)
     h_psi:pot    :  28018.83s CPU  28793.54s WALL ( 2513336 calls)
     h_psi:calbec :   2852.91s CPU   3024.17s WALL ( 2513336 calls)
     s_psi_bgrp   :     55.46s CPU     55.81s WALL ( 5155216 calls)


     PHONON       :     10h 1m CPU     10h28m WALL


   This run was terminated on:   4:40:30  25Feb2026            

=------------------------------------------------------------------------------=
   JOB DONE.
=------------------------------------------------------------------------------=
