ANIMSTEPS    6
CRYSTAL
PRIMVEC
   -2.866563059    0.000000000    2.866563059
    0.000000000    2.866563059    2.866563059
   -2.866563059    2.866563059    0.000000000
PRIMCOORD    1
      2   1
   Ga     0.00000   0.00000   0.00000   0.00000   0.00000  -0.07071
   As    -1.43328   1.43328   1.43328   0.00000   0.00000  -0.07071
PRIMCOORD    2
      2   1
   Ga     0.00000   0.00000   0.00000  -0.02705  -0.06533   0.00000
   As    -1.43328   1.43328   1.43328  -0.02705  -0.06533   0.00000
PRIMCOORD    3
      2   1
   Ga     0.00000   0.00000   0.00000   0.06533  -0.02705   0.00000
   As    -1.43328   1.43328   1.43328   0.06533  -0.02705   0.00000
PRIMCOORD    4
      2   1
   Ga     0.00000   0.00000   0.00000   0.07320  -0.00000   0.00000
   As    -1.43328   1.43328   1.43328  -0.06813  -0.00000   0.00000
PRIMCOORD    5
      2   1
   Ga     0.00000   0.00000   0.00000   0.00000   0.07320   0.00000
   As    -1.43328   1.43328   1.43328   0.00000  -0.06813   0.00000
PRIMCOORD    6
      2   1
   Ga     0.00000   0.00000   0.00000   0.00000   0.00000  -0.07320
   As    -1.43328   1.43328   1.43328   0.00000   0.00000   0.06813
