[Molden Format]
[FREQ]
    0.00
    0.00
    0.00
  229.29
  229.29
  248.46
[FR-COORD]
   Ga          0.00000        0.00000        0.00000
   As         -2.70851        2.70851        2.70851
[FR-NORM-COORD]
 vibration     1
   0.00000   0.00000  -0.70711
   0.00000   0.00000  -0.70711
 vibration     2
  -0.27049  -0.65333   0.00000
  -0.27049  -0.65333   0.00000
 vibration     3
   0.65333  -0.27049   0.00000
   0.65333  -0.27049   0.00000
 vibration     4
   0.73205  -0.00000   0.00000
  -0.68126  -0.00000   0.00000
 vibration     5
   0.00000   0.73205   0.00000
   0.00000  -0.68126   0.00000
 vibration     6
   0.00000   0.00000  -0.73205
   0.00000   0.00000   0.68126
