ANIMSTEPS    6
CRYSTAL
PRIMVEC
   -2.800647264    0.000000000    2.800647264
    0.000000000    2.800647264    2.800647264
   -2.800647264    2.800647264    0.000000000
PRIMCOORD    1
      2   1
Ga        0.00000   0.00000   0.00000   0.07067  -0.00163  -0.00161
As       -1.40032   1.40032   1.40032   0.07067  -0.00163  -0.00161
PRIMCOORD    2
      2   1
Ga        0.00000   0.00000   0.00000   0.00218   0.03274   0.06264
As       -1.40032   1.40032   1.40032   0.00218   0.03274   0.06264
PRIMCOORD    3
      2   1
Ga        0.00000   0.00000   0.00000   0.00070   0.06265  -0.03278
As       -1.40032   1.40032   1.40032   0.00070   0.06265  -0.03278
PRIMCOORD    4
      2   1
Ga        0.00000   0.00000   0.00000  -0.07121  -0.01696   0.00000
As       -1.40032   1.40032   1.40032   0.06627   0.01578   0.00000
PRIMCOORD    5
      2   1
Ga        0.00000   0.00000   0.00000  -0.01696   0.07121  -0.00000
As       -1.40032   1.40032   1.40032   0.01578  -0.06627  -0.00000
PRIMCOORD    6
      2   1
Ga        0.00000   0.00000   0.00000   0.00000   0.00000  -0.07320
As       -1.40032   1.40032   1.40032   0.00000   0.00000   0.06813
