[Molden Format]
[FREQ]
    0.00
    0.00
    0.00
  269.73
  269.73
  286.53
[FR-COORD]
Ga             0.00000        0.00000        0.00000
As            -2.64623        2.64623        2.64623
[FR-NORM-COORD]
 vibration     1
   0.70674  -0.01630  -0.01609
   0.70674  -0.01630  -0.01609
 vibration     2
   0.02181   0.32743   0.62635
   0.02181   0.32743   0.62635
 vibration     3
   0.00699   0.62652  -0.32776
   0.00699   0.62652  -0.32776
 vibration     4
  -0.71213  -0.16959   0.00000
   0.66272   0.15782   0.00000
 vibration     5
  -0.16959   0.71213  -0.00000
   0.15782  -0.66272  -0.00000
 vibration     6
   0.00000   0.00000  -0.73205
   0.00000   0.00000   0.68126
