
     Program PWSCF v.7.5 starts on 26Jan2026 at 16: 8: 0 

     This program is part of the open-source Quantum ESPRESSO suite
     for quantum simulation of materials; please cite
         "P. Giannozzi et al., J. Phys.:Condens. Matter 21 395502 (2009);
         "P. Giannozzi et al., J. Phys.:Condens. Matter 29 465901 (2017);
         "P. Giannozzi et al., J. Chem. Phys. 152 154105 (2020);
          URL http://www.quantum-espresso.org", 
     in publications or presentations arising from this work. More details at
     http://www.quantum-espresso.org/quote

     Parallel version (MPI), running on     1 processors

     MPI processes distributed on     1 nodes
     25010 MiB available memory on the printing compute node when the environment starts

     Waiting for input...
     Reading input from standard input

     Current dimensions of program PWSCF are:
     Max number of different atomic species (ntypx) = 10
     Max number of k-points (npk) =  40000
     Max angular momentum in pseudopotentials (lmaxx) =  4
     file Ga.pbe-dn-kjpaw_psl.1.0.0.UPF: wavefunction(s)  4S renormalized
     file Al.pbe-n-kjpaw_psl.1.0.0.UPF: wavefunction(s)  3S 3P renormalized
     Message from routine volume:
     axis vectors are left-handed
     Message from routine setup:
     using ibrav=0 with symmetry is DISCOURAGED, use correct ibrav instead

     Subspace diagonalization in iterative solution of the eigenvalue problem:
     a serial algorithm will be used


     G-vector sticks info
     --------------------
     sticks:   dense  smooth     PW     G-vecs:    dense   smooth      PW
     Sum        1915    1915    535                55009    55009    8099

     Using Slab Decomposition



     bravais-lattice index     =            0
     lattice parameter (alat)  =      10.6829  a.u.
     unit-cell volume          =     304.7984 (a.u.)^3
     number of atoms/cell      =            2
     number of atomic types    =            2
     number of electrons       =        16.00
     number of Kohn-Sham states=           12
     kinetic-energy cutoff     =     121.1111  Ry
     charge density cutoff     =     484.4444  Ry
     scf convergence threshold =      1.0E-06
     mixing beta               =       0.7000
     number of iterations used =            8  plain     mixing
     Exchange-correlation= SLA  PW   PBX  PBC
                           (   1   4   3   4   0   0   0)

     celldm(1)=  10.682943  celldm(2)=   0.000000  celldm(3)=   0.000000
     celldm(4)=   0.000000  celldm(5)=   0.000000  celldm(6)=   0.000000

     crystal axes: (cart. coord. in units of alat)
               a(1) = (   0.500000   0.500000   0.000000 )  
               a(2) = (   0.500000   0.000000   0.500000 )  
               a(3) = (   0.000000   0.500000   0.500000 )  

     reciprocal axes: (cart. coord. in units 2 pi/alat)
               b(1) = (  1.000000  1.000000 -1.000000 )  
               b(2) = (  1.000000 -1.000000  1.000000 )  
               b(3) = ( -1.000000  1.000000  1.000000 )  


     PseudoPot. # 1 for Ga read from file:
     /home/nico-sachs/source/q-e/SSSP_1.3.0_PBE_efficiency/Ga.pbe-dn-kjpaw_psl.1.0.0.UPF
     MD5 check sum: a27b4342b1af7e5f338de752e9ed7044
     Pseudo is Projector augmented-wave + core cor, Zval = 13.0
     Generated using "atomic" code by A. Dal Corso  v.5.1
     Shape of augmentation charge: PSQ
     Using radial grid of 1205 points,  6 beta functions with: 
                l(1) =   0
                l(2) =   0
                l(3) =   1
                l(4) =   1
                l(5) =   2
                l(6) =   2
     Q(r) pseudized with 0 coefficients 


     PseudoPot. # 2 for Al read from file:
     /home/nico-sachs/source/q-e/SSSP_1.3.0_PBE_efficiency/Al.pbe-n-kjpaw_psl.1.0.0.UPF
     MD5 check sum: cfc449ca30b5f3223ec38ddd88ac046d
     Pseudo is Projector augmented-wave + core cor, Zval =  3.0
     Generated using "atomic" code by A. Dal Corso  v.5.1
     Shape of augmentation charge: PSQ
     Using radial grid of 1135 points,  6 beta functions with: 
                l(1) =   0
                l(2) =   0
                l(3) =   1
                l(4) =   1
                l(5) =   2
                l(6) =   2
     Q(r) pseudized with 0 coefficients 


     atomic species   valence    mass     pseudopotential
     Ga               13.00    69.72300     Ga( 1.00)
     As                3.00    74.92100     Al( 1.00)

     24 Sym. Ops. (no inversion) found



   Cartesian axes

     site n.     atom                  positions (alat units)
         1        As     tau(   1) = (   0.2500000   0.2500000   0.2500000  )
         2        Ga     tau(   2) = (   0.0000000   0.0000000   0.0000000  )

     number of k points=    60  Marzari-Vanderbilt smearing, width (Ry)=  0.0500
                       cart. coord. in units 2pi/alat
        k(    1) = (   0.0625000   0.0625000   0.0625000), wk =   0.0078125
        k(    2) = (   0.0625000   0.0625000   0.1875000), wk =   0.0234375
        k(    3) = (   0.0625000   0.0625000   0.3125000), wk =   0.0234375
        k(    4) = (   0.0625000   0.0625000   0.4375000), wk =   0.0234375
        k(    5) = (   0.0625000   0.0625000   0.5625000), wk =   0.0234375
        k(    6) = (   0.0625000   0.0625000   0.6875000), wk =   0.0234375
        k(    7) = (   0.0625000   0.0625000   0.8125000), wk =   0.0234375
        k(    8) = (   0.0625000   0.0625000   0.9375000), wk =   0.0234375
        k(    9) = (   0.0625000   0.1875000   0.1875000), wk =   0.0234375
        k(   10) = (   0.0625000   0.1875000   0.3125000), wk =   0.0468750
        k(   11) = (   0.0625000   0.1875000   0.4375000), wk =   0.0468750
        k(   12) = (   0.0625000   0.1875000   0.5625000), wk =   0.0468750
        k(   13) = (   0.0625000   0.1875000   0.6875000), wk =   0.0468750
        k(   14) = (   0.0625000   0.1875000   0.8125000), wk =   0.0468750
        k(   15) = (   0.0625000   0.1875000   0.9375000), wk =   0.0468750
        k(   16) = (   0.0625000   0.3125000   0.3125000), wk =   0.0234375
        k(   17) = (   0.0625000   0.3125000   0.4375000), wk =   0.0468750
        k(   18) = (   0.0625000   0.3125000   0.5625000), wk =   0.0468750
        k(   19) = (   0.0625000   0.3125000   0.6875000), wk =   0.0468750
        k(   20) = (   0.0625000   0.3125000   0.8125000), wk =   0.0468750
        k(   21) = (   0.0625000   0.3125000   0.9375000), wk =   0.0468750
        k(   22) = (   0.0625000   0.4375000   0.4375000), wk =   0.0234375
        k(   23) = (   0.0625000   0.4375000   0.5625000), wk =   0.0468750
        k(   24) = (   0.0625000   0.4375000   0.6875000), wk =   0.0468750
        k(   25) = (   0.0625000   0.4375000   0.8125000), wk =   0.0468750
        k(   26) = (   0.0625000   0.4375000   0.9375000), wk =   0.0468750
        k(   27) = (   0.0625000   0.5625000   0.5625000), wk =   0.0234375
        k(   28) = (   0.0625000   0.5625000   0.6875000), wk =   0.0468750
        k(   29) = (   0.0625000   0.5625000   0.8125000), wk =   0.0468750
        k(   30) = (   0.0625000   0.6875000   0.6875000), wk =   0.0234375
        k(   31) = (   0.0625000   0.6875000   0.8125000), wk =   0.0468750
        k(   32) = (   0.0625000   0.8125000   0.8125000), wk =   0.0234375
        k(   33) = (   0.1875000   0.1875000   0.1875000), wk =   0.0078125
        k(   34) = (   0.1875000   0.1875000   0.3125000), wk =   0.0234375
        k(   35) = (   0.1875000   0.1875000   0.4375000), wk =   0.0234375
        k(   36) = (   0.1875000   0.1875000   0.5625000), wk =   0.0234375
        k(   37) = (   0.1875000   0.1875000   0.6875000), wk =   0.0234375
        k(   38) = (   0.1875000   0.1875000   0.8125000), wk =   0.0234375
        k(   39) = (   0.1875000   0.3125000   0.3125000), wk =   0.0234375
        k(   40) = (   0.1875000   0.3125000   0.4375000), wk =   0.0468750
        k(   41) = (   0.1875000   0.3125000   0.5625000), wk =   0.0468750
        k(   42) = (   0.1875000   0.3125000   0.6875000), wk =   0.0468750
        k(   43) = (   0.1875000   0.3125000   0.8125000), wk =   0.0468750
        k(   44) = (   0.1875000   0.4375000   0.4375000), wk =   0.0234375
        k(   45) = (   0.1875000   0.4375000   0.5625000), wk =   0.0468750
        k(   46) = (   0.1875000   0.4375000   0.6875000), wk =   0.0468750
        k(   47) = (   0.1875000   0.4375000   0.8125000), wk =   0.0468750
        k(   48) = (   0.1875000   0.5625000   0.5625000), wk =   0.0234375
        k(   49) = (   0.1875000   0.5625000   0.6875000), wk =   0.0468750
        k(   50) = (   0.1875000   0.6875000   0.6875000), wk =   0.0234375
        k(   51) = (   0.3125000   0.3125000   0.3125000), wk =   0.0078125
        k(   52) = (   0.3125000   0.3125000   0.4375000), wk =   0.0234375
        k(   53) = (   0.3125000   0.3125000   0.5625000), wk =   0.0234375
        k(   54) = (   0.3125000   0.3125000   0.6875000), wk =   0.0234375
        k(   55) = (   0.3125000   0.4375000   0.4375000), wk =   0.0234375
        k(   56) = (   0.3125000   0.4375000   0.5625000), wk =   0.0468750
        k(   57) = (   0.3125000   0.4375000   0.6875000), wk =   0.0468750
        k(   58) = (   0.3125000   0.5625000   0.5625000), wk =   0.0234375
        k(   59) = (   0.4375000   0.4375000   0.4375000), wk =   0.0078125
        k(   60) = (   0.4375000   0.4375000   0.5625000), wk =   0.0234375

     Dense  grid:    55009 G-vectors     FFT dimensions: (  54,  54,  54)

     Estimated max dynamical RAM per process >     288.00 MB

     Initial potential from superposition of free atoms

     starting charge      15.9948, renormalised to      16.0000
     Starting wfcs are   13 randomized atomic wfcs
     Checking if some PAW data can be deallocated... 

     total cpu time spent up to now is        4.9 secs

     Self-consistent Calculation

     iteration #  1     ecut=   121.11 Ry     beta= 0.70
     CG style diagonalization
     ethr =  1.00E-02,  avg # of iterations =  3.1

     Threshold (ethr) on eigenvalues was too large:
     Diagonalizing with lowered threshold

     CG style diagonalization
     c_bands:  2 eigenvalues not converged
     c_bands:  1 eigenvalues not converged
     c_bands:  1 eigenvalues not converged
     c_bands:  1 eigenvalues not converged
     c_bands:  1 eigenvalues not converged
     c_bands:  1 eigenvalues not converged
     c_bands:  1 eigenvalues not converged
     c_bands:  1 eigenvalues not converged
     c_bands:  1 eigenvalues not converged
     ethr =  4.72E-05,  avg # of iterations =  8.1

     total cpu time spent up to now is       50.9 secs

     total energy              =    -317.34940228 Ry
     estimated scf accuracy    <       0.01003606 Ry

     iteration #  2     ecut=   121.11 Ry     beta= 0.70
     CG style diagonalization
     ethr =  6.27E-05,  avg # of iterations =  3.0

     total cpu time spent up to now is       63.5 secs

     total energy              =    -317.34979037 Ry
     estimated scf accuracy    <       0.00083978 Ry

     iteration #  3     ecut=   121.11 Ry     beta= 0.70
     CG style diagonalization
     c_bands:  1 eigenvalues not converged
     c_bands:  1 eigenvalues not converged
     c_bands:  1 eigenvalues not converged
     c_bands:  1 eigenvalues not converged
     c_bands:  1 eigenvalues not converged
     ethr =  5.25E-06,  avg # of iterations =  5.0

     total cpu time spent up to now is       83.0 secs

     total energy              =    -317.35006701 Ry
     estimated scf accuracy    <       0.00000922 Ry

     iteration #  4     ecut=   121.11 Ry     beta= 0.70
     CG style diagonalization
     c_bands:  1 eigenvalues not converged
     c_bands:  1 eigenvalues not converged
     c_bands:  1 eigenvalues not converged
     c_bands:  1 eigenvalues not converged
     c_bands:  1 eigenvalues not converged
     c_bands:  1 eigenvalues not converged
     c_bands:  1 eigenvalues not converged
     c_bands:  1 eigenvalues not converged
     c_bands:  1 eigenvalues not converged
     c_bands:  1 eigenvalues not converged
     c_bands:  1 eigenvalues not converged
     c_bands:  1 eigenvalues not converged
     c_bands:  1 eigenvalues not converged
     c_bands:  1 eigenvalues not converged
     c_bands:  1 eigenvalues not converged
     c_bands:  1 eigenvalues not converged
     c_bands:  2 eigenvalues not converged
     c_bands:  1 eigenvalues not converged
     c_bands:  1 eigenvalues not converged
     c_bands:  1 eigenvalues not converged
     c_bands:  1 eigenvalues not converged
     ethr =  5.76E-08,  avg # of iterations = 10.9

     total cpu time spent up to now is      123.7 secs

     total energy              =    -317.35032829 Ry
     estimated scf accuracy    <       0.00021701 Ry

     iteration #  5     ecut=   121.11 Ry     beta= 0.70
     CG style diagonalization
     c_bands:  1 eigenvalues not converged
     c_bands:  1 eigenvalues not converged
     ethr =  5.76E-08,  avg # of iterations =  3.7

     total cpu time spent up to now is      138.4 secs

     total energy              =    -317.35031010 Ry
     estimated scf accuracy    <       0.00030828 Ry

     iteration #  6     ecut=   121.11 Ry     beta= 0.70
     CG style diagonalization
     ethr =  5.76E-08,  avg # of iterations =  3.2

     total cpu time spent up to now is      151.2 secs

     total energy              =    -317.35020366 Ry
     estimated scf accuracy    <       0.00024084 Ry

     iteration #  7     ecut=   121.11 Ry     beta= 0.70
     CG style diagonalization
     ethr =  5.76E-08,  avg # of iterations =  7.3

     total cpu time spent up to now is      178.8 secs

     total energy              =    -317.35028475 Ry
     estimated scf accuracy    <       0.00024013 Ry

     iteration #  8     ecut=   121.11 Ry     beta= 0.70
     CG style diagonalization
     ethr =  5.76E-08,  avg # of iterations =  3.1

     total cpu time spent up to now is      191.6 secs

     total energy              =    -317.35023757 Ry
     estimated scf accuracy    <       0.00016391 Ry

     iteration #  9     ecut=   121.11 Ry     beta= 0.70
     CG style diagonalization
     ethr =  5.76E-08,  avg # of iterations =  7.5

     total cpu time spent up to now is      220.3 secs

     total energy              =    -317.35020781 Ry
     estimated scf accuracy    <       0.00099846 Ry

     iteration # 10     ecut=   121.11 Ry     beta= 0.70
     CG style diagonalization
     ethr =  5.76E-08,  avg # of iterations =  6.3

     total cpu time spent up to now is      244.6 secs

     total energy              =    -317.35025692 Ry
     estimated scf accuracy    <       0.00010393 Ry

     iteration # 11     ecut=   121.11 Ry     beta= 0.70
     CG style diagonalization
     ethr =  5.76E-08,  avg # of iterations =  3.6

     total cpu time spent up to now is      258.9 secs

     total energy              =    -317.35024891 Ry
     estimated scf accuracy    <       0.00006501 Ry

     iteration # 12     ecut=   121.11 Ry     beta= 0.70
     CG style diagonalization
     ethr =  5.76E-08,  avg # of iterations =  3.8

     total cpu time spent up to now is      273.8 secs

     total energy              =    -317.35025235 Ry
     estimated scf accuracy    <       0.00001995 Ry

     iteration # 13     ecut=   121.11 Ry     beta= 0.70
     CG style diagonalization
     ethr =  5.76E-08,  avg # of iterations =  3.5

     total cpu time spent up to now is      287.8 secs

     total energy              =    -317.35025034 Ry
     estimated scf accuracy    <       0.00001201 Ry

     iteration # 14     ecut=   121.11 Ry     beta= 0.70
     CG style diagonalization
     ethr =  5.76E-08,  avg # of iterations =  3.8

     total cpu time spent up to now is      303.0 secs

     End of self-consistent calculation

          k = 0.0625 0.0625 0.0625 (  6840 PWs)   bands (ev):

    -9.0742  -9.0734  -9.0734  -9.0120  -9.0120  -3.8340   7.5823   8.0739
     8.0742  10.4577  10.5085  10.5085

          k = 0.0625 0.0625 0.1875 (  6849 PWs)   bands (ev):

    -9.0758  -9.0711  -9.0709  -9.0131  -9.0108  -3.6999   6.8075   7.5502
     7.7849  10.1385  10.9015  11.1797

          k = 0.0625 0.0625 0.3125 (  6866 PWs)   bands (ev):

    -9.0792  -9.0665  -9.0662  -9.0155  -9.0088  -3.4328   5.9462   6.9090
     7.0641   9.6135  11.6931  12.1033

          k = 0.0625 0.0625 0.4375 (  6880 PWs)   bands (ev):

    -9.0835  -9.0603  -9.0600  -9.0187  -9.0061  -3.0354   5.0324   6.3074
     6.3117   9.0857  10.9743  12.9085

          k = 0.0625 0.0625 0.5625 (  6875 PWs)   bands (ev):

    -9.0881  -9.0534  -9.0531  -9.0226  -9.0032  -2.5127   4.0491   5.6702
     5.8086   8.6287  10.0544  14.0811

          k = 0.0625 0.0625 0.6875 (  6883 PWs)   bands (ev):

    -9.0923  -9.0470  -9.0467  -9.0264  -9.0006  -1.8749   3.0167   5.1959
     5.4200   8.2729   9.3559  15.1032

          k = 0.0625 0.0625 0.8125 (  6879 PWs)   bands (ev):

    -9.0955  -9.0421  -9.0417  -9.0295  -8.9987  -1.1466   1.9970   4.8849
     5.1563   8.0328   8.8944  16.1153

          k = 0.0625 0.0625 0.9375 (  6871 PWs)   bands (ev):

    -9.0972  -9.0394  -9.0389  -9.0313  -8.9977  -0.4391   1.1349   4.7310
     5.0231   7.9118   8.6660  17.0396

          k = 0.0625 0.1875 0.1875 (  6848 PWs)   bands (ev):

    -9.0754  -9.0706  -9.0691  -9.0130  -9.0109  -3.5667   6.0111   7.1078
     7.9747  10.5677  10.7093  11.1094

          k = 0.0625 0.1875 0.3125 (  6860 PWs)   bands (ev):

    -9.0776  -9.0668  -9.0655  -9.0146  -9.0092  -3.3018   5.1996   6.4580
     7.5458  10.2567  11.1681  11.8283

          k = 0.0625 0.1875 0.4375 (  6865 PWs)   bands (ev):

    -9.0814  -9.0612  -9.0602  -9.0174  -9.0066  -2.9084   4.4170   5.8285
     6.7751   9.7402  11.4593  12.0412

          k = 0.0625 0.1875 0.5625 (  6862 PWs)   bands (ev):

    -9.0855  -9.0556  -9.0535  -9.0209  -9.0039  -2.3926   3.6377   5.2622
     5.9989   9.2618  10.6488  12.8836

          k = 0.0625 0.1875 0.6875 (  6863 PWs)   bands (ev):

    -9.0893  -9.0502  -9.0470  -9.0244  -9.0017  -1.7666   2.8161   4.7739
     5.3986   8.8733  10.0433  13.7729

          k = 0.0625 0.1875 0.8125 (  6874 PWs)   bands (ev):

    -9.0922  -9.0457  -9.0419  -9.0274  -9.0001  -1.0598   1.9529   4.4100
     5.0277   8.6011   9.6559  14.7022

          k = 0.0625 0.1875 0.9375 (  6875 PWs)   bands (ev):

    -9.0937  -9.0432  -9.0392  -9.0291  -8.9993  -0.3932   1.1933   4.2207
     4.8546   8.4615   9.4684  15.6483

          k = 0.0625 0.3125 0.3125 (  6847 PWs)   bands (ev):

    -9.0766  -9.0655  -9.0640  -9.0139  -9.0092  -3.0418   4.4376   5.8191
     7.6453  10.7737  11.1381  11.4957

          k = 0.0625 0.3125 0.4375 (  6857 PWs)   bands (ev):

    -9.0783  -9.0619  -9.0603  -9.0152  -9.0078  -2.6574   3.7317   5.2121
     7.1111  10.7100  11.0507  12.2731

          k = 0.0625 0.3125 0.5625 (  6854 PWs)   bands (ev):

    -9.0812  -9.0587  -9.0539  -9.0180  -9.0056  -2.1572   3.0832   4.6897
     6.2581  10.2731  11.4372  11.7707

          k = 0.0625 0.3125 0.6875 (  6867 PWs)   bands (ev):

    -9.0841  -9.0551  -9.0473  -9.0211  -9.0038  -1.5585   2.4634   4.2689
     5.4159   9.8931  11.1023  12.2975

          k = 0.0625 0.3125 0.8125 (  6856 PWs)   bands (ev):

    -9.0864  -9.0519  -9.0422  -9.0240  -9.0027  -0.9012   1.8372   3.9574
     4.7906   9.6277  10.7836  13.1179

          k = 0.0625 0.3125 0.9375 (  6859 PWs)   bands (ev):

    -9.0876  -9.0499  -9.0394  -9.0257  -9.0022  -0.3237   1.2823   3.7803
     4.4797   9.4920  10.6255  14.0257

          k = 0.0625 0.4375 0.4375 (  6859 PWs)   bands (ev):

    -9.0767  -9.0611  -9.0590  -9.0133  -9.0091  -2.2894   3.0965   4.6305
     7.0492  10.3314  11.8423  12.1009

          k = 0.0625 0.4375 0.5625 (  6860 PWs)   bands (ev):

    -9.0775  -9.0602  -9.0539  -9.0145  -9.0084  -1.8182   2.5400   4.1459
     6.4487  10.2726  11.5645  12.9157

          k = 0.0625 0.4375 0.6875 (  6859 PWs)   bands (ev):

    -9.0792  -9.0590  -9.0476  -9.0177  -9.0067  -1.2706   2.0630   3.7900
     5.5735  10.6264  11.2988  12.5271

          k = 0.0625 0.4375 0.8125 (  6846 PWs)   bands (ev):

    -9.0806  -9.0576  -9.0423  -9.0207  -9.0054  -0.7050   1.6547   3.5865
     4.7509  10.8090  11.5147  12.2981

          k = 0.0625 0.4375 0.9375 (  6843 PWs)   bands (ev):

    -9.0815  -9.0566  -9.0394  -9.0226  -9.0048  -0.2705   1.3505   3.5402
     4.2117  10.7464  11.8519  12.5844

          k = 0.0625 0.5625 0.5625 (  6862 PWs)   bands (ev):

    -9.0772  -9.0587  -9.0522  -9.0128  -9.0105  -1.3983   2.0725   3.7086
     6.3493   9.5376  12.8420  13.0688

          k = 0.0625 0.5625 0.6875 (  6858 PWs)   bands (ev):

    -9.0789  -9.0575  -9.0475  -9.0168  -9.0079  -0.9413   1.7104   3.4283
     5.7647   9.5129  12.6498  13.9114

          k = 0.0625 0.5625 0.8125 (  6855 PWs)   bands (ev):

    -9.0806  -9.0569  -9.0424  -9.0204  -9.0058  -0.5266   1.4685   3.3591
     4.9397  10.0150  12.3768  13.1834

          k = 0.0625 0.6875 0.6875 (  6865 PWs)   bands (ev):

    -9.0824  -9.0527  -9.0460  -9.0199  -9.0058  -0.6342   1.4624   3.2636
     5.7201   8.8327  12.9189  14.1089

          k = 0.0625 0.6875 0.8125 (  6852 PWs)   bands (ev):

    -9.0858  -9.0505  -9.0423  -9.0235  -9.0035  -0.4201   1.3308   3.3725
     5.2088   8.9084  11.6936  14.1087

          k = 0.0625 0.8125 0.8125 (  6871 PWs)   bands (ev):

    -9.0909  -9.0448  -9.0414  -9.0270  -9.0008  -0.3901   1.2413   3.6778
     5.2620   8.3196  10.4669  15.5806

          k = 0.1875 0.1875 0.1875 (  6873 PWs)   bands (ev):

    -9.0754  -9.0688  -9.0688  -9.0117  -9.0117  -3.4348   5.2287   7.5697
     7.5697  10.1110  11.1313  11.1314

          k = 0.1875 0.1875 0.3125 (  6854 PWs)   bands (ev):

    -9.0770  -9.0664  -9.0652  -9.0135  -9.0095  -3.1725   4.4464   7.0186
     7.2992  10.2223  10.9195  11.7234

          k = 0.1875 0.1875 0.4375 (  6861 PWs)   bands (ev):

    -9.0801  -9.0620  -9.0603  -9.0160  -9.0069  -2.7841   3.7336   6.4769
     6.4898   9.8677  11.5814  12.3693

          k = 0.1875 0.1875 0.5625 (  6867 PWs)   bands (ev):

    -9.0836  -9.0567  -9.0546  -9.0192  -9.0044  -2.2773   3.0875   5.5477
     6.0079   9.3017  11.4552  12.6368

          k = 0.1875 0.1875 0.6875 (  6859 PWs)   bands (ev):

    -9.0869  -9.0515  -9.0488  -9.0225  -9.0025  -1.6678   2.4703   4.6696
     5.6405   8.8213  10.9485  13.8359

          k = 0.1875 0.1875 0.8125 (  6871 PWs)   bands (ev):

    -9.0895  -9.0473  -9.0441  -9.0253  -9.0013  -0.9930   1.8297   4.0128
     5.3893   8.4881  10.6250  14.6911

          k = 0.1875 0.3125 0.3125 (  6862 PWs)   bands (ev):

    -9.0769  -9.0649  -9.0638  -9.0125  -9.0095  -2.9165   3.6915   6.5993
     7.4528  10.1501  11.0903  11.4141

          k = 0.1875 0.3125 0.4375 (  6851 PWs)   bands (ev):

    -9.0783  -9.0622  -9.0605  -9.0138  -9.0077  -2.5397   3.0240   6.0109
     7.0013  10.2868  10.9580  11.8804

          k = 0.1875 0.3125 0.5625 (  6862 PWs)   bands (ev):

    -9.0806  -9.0590  -9.0553  -9.0163  -9.0056  -2.0541   2.4603   5.3621
     6.2800   9.8442  11.5103  12.6003

          k = 0.1875 0.3125 0.6875 (  6857 PWs)   bands (ev):

    -9.0829  -9.0556  -9.0497  -9.0192  -9.0042  -1.4841   1.9972   4.5971
     5.7063   9.3865  12.0015  12.4684

          k = 0.1875 0.3125 0.8125 (  6854 PWs)   bands (ev):

    -9.0848  -9.0524  -9.0450  -9.0218  -9.0036  -0.8867   1.6162   3.8464
     5.3666   9.0682  11.8225  13.2166

          k = 0.1875 0.4375 0.4375 (  6852 PWs)   bands (ev):

    -9.0775  -9.0609  -9.0598  -9.0119  -9.0087  -2.1851   2.4063   5.4819
     7.0369  10.2804  11.3364  11.3784

          k = 0.1875 0.4375 0.5625 (  6862 PWs)   bands (ev):

    -9.0780  -9.0602  -9.0555  -9.0130  -9.0079  -1.7410   1.9169   4.9571
     6.5062  10.3485  10.8863  12.4580

          k = 0.1875 0.4375 0.6875 (  6861 PWs)   bands (ev):

    -9.0791  -9.0592  -9.0500  -9.0159  -9.0066  -1.2501   1.5846   4.4235
     5.7662  10.3890  10.9328  13.5181

          k = 0.1875 0.4375 0.8125 (  6857 PWs)   bands (ev):

    -9.0800  -9.0579  -9.0452  -9.0187  -9.0060  -0.8002   1.4420   3.8396
     5.2018  10.1475  11.6089  13.3020

          k = 0.1875 0.5625 0.5625 (  6860 PWs)   bands (ev):

    -9.0777  -9.0592  -9.0541  -9.0118  -9.0094  -1.3762   1.5273   4.5355
     6.4249   9.6739  12.1082  12.1446

          k = 0.1875 0.5625 0.6875 (  6870 PWs)   bands (ev):

    -9.0789  -9.0583  -9.0499  -9.0153  -9.0074  -1.0322   1.3559   4.1605
     5.8935   9.6610  11.8257  13.4924

          k = 0.1875 0.6875 0.6875 (  6866 PWs)   bands (ev):

    -9.0818  -9.0544  -9.0485  -9.0184  -9.0054  -0.9084   1.3850   3.9337
     5.8322   9.0007  12.9178  13.2913

          k = 0.3125 0.3125 0.3125 (  6838 PWs)   bands (ev):

    -9.0774  -9.0633  -9.0633  -9.0102  -9.0102  -2.6698   2.9518   7.1204
     7.1208   9.7031  11.1731  11.1732

          k = 0.3125 0.3125 0.4375 (  6853 PWs)   bands (ev):

    -9.0783  -9.0620  -9.0606  -9.0115  -9.0078  -2.3114   2.3193   6.7314
     6.7905   9.9220  10.8299  11.4501

          k = 0.3125 0.3125 0.5625 (  6861 PWs)   bands (ev):

    -9.0795  -9.0598  -9.0569  -9.0136  -9.0061  -1.8617   1.8254   5.9045
     6.3587   9.7727  11.2983  11.9099

          k = 0.3125 0.3125 0.6875 (  6859 PWs)   bands (ev):

    -9.0808  -9.0570  -9.0525  -9.0160  -9.0053  -1.3639   1.5002   4.8864
     6.0499   9.3305  12.2508  12.5314

          k = 0.3125 0.4375 0.4375 (  6870 PWs)   bands (ev):

    -9.0785  -9.0607  -9.0605  -9.0098  -9.0082  -1.9904   1.7396   6.3895
     6.9894   9.8654  11.0029  11.0147

          k = 0.3125 0.4375 0.5625 (  6871 PWs)   bands (ev):

    -9.0787  -9.0602  -9.0576  -9.0108  -9.0074  -1.6158   1.3405   5.8595
     6.6012  10.1492  10.6437  11.6238

          k = 0.3125 0.4375 0.6875 (  6865 PWs)   bands (ev):

    -9.0788  -9.0594  -9.0537  -9.0130  -9.0070  -1.2640   1.1920   5.0704
     6.1636   9.9414  11.0715  12.5170

          k = 0.3125 0.5625 0.5625 (  6865 PWs)   bands (ev):

    -9.0785  -9.0597  -9.0568  -9.0102  -9.0081  -1.3878   1.1015   5.5395
     6.5618   9.8855  11.1785  11.5183

          k = 0.4375 0.4375 0.4375 (  6865 PWs)   bands (ev):

    -9.0792  -9.0604  -9.0604  -9.0082  -9.0082  -1.7415   1.2399   6.8846
     6.8847   9.4885  10.9098  10.9099

          k = 0.4375 0.4375 0.5625 (  6863 PWs)   bands (ev):

    -9.0791  -9.0601  -9.0591  -9.0089  -9.0075  -1.5111   0.9986   6.4660
     6.7291   9.7846  10.7524  11.0884

     the Fermi energy is     5.5187 ev

!    total energy              =    -317.35025446 Ry
     total all-electron energy =     -4373.657696 Ry
     estimated scf accuracy    <       0.00000021 Ry
     smearing contrib. (-TS)   =      -0.00133693 Ry
     internal energy E=F+TS    =    -317.34891753 Ry

     The total energy is F=E-TS. E is the sum of the following terms:
     one-electron contribution =    -124.50656044 Ry
     hartree contribution      =      75.74260396 Ry
     xc contribution           =     -40.61451369 Ry
     ewald contribution        =     -82.24853881 Ry
     one-center paw contrib.   =    -145.72190856 Ry

     convergence has been achieved in  14 iterations

     Forces acting on atoms (cartesian axes, Ry/au):

     atom    1 type  2   force =    -0.00000000    0.00000000   -0.00000000
     atom    2 type  1   force =    -0.00000000    0.00000000    0.00000000

     Total force =     0.000000     Total SCF correction =     0.000000


     Computing stress (Cartesian axis) and pressure

          total   stress  (Ry/bohr**3)                   (kbar)     P=       70.84
   0.00048156   0.00000000  -0.00000000           70.84        0.00       -0.00
   0.00000000   0.00048156  -0.00000000            0.00       70.84       -0.00
  -0.00000000  -0.00000000   0.00048156           -0.00       -0.00       70.84


     Writing all to output data dir /home/nico-sachs/source/q-e/tempdir/al.save/ :
     XML data file, charge density, pseudopotentials, collected wavefunctions

     init_run     :      4.54s CPU      4.70s WALL (       1 calls)
     electrons    :    293.98s CPU    298.12s WALL (       1 calls)
     forces       :      1.70s CPU      1.80s WALL (       1 calls)
     stress       :      7.61s CPU      7.93s WALL (       1 calls)

     Called by init_run:
     wfcinit      :      3.11s CPU      3.14s WALL (       1 calls)
     potinit      :      0.40s CPU      0.44s WALL (       1 calls)
     hinit0       :      0.73s CPU      0.73s WALL (       1 calls)

     Called by electrons:
     c_bands      :    263.76s CPU    264.75s WALL (      15 calls)
     sum_band     :     21.75s CPU     23.54s WALL (      15 calls)
     v_of_rho     :      0.71s CPU      0.73s WALL (      15 calls)
     newd         :      3.52s CPU      4.95s WALL (      15 calls)
     PAW_pot      :      4.70s CPU      4.74s WALL (      15 calls)
     mix_rho      :      0.10s CPU      0.11s WALL (      15 calls)

     Called by c_bands:
     init_us_2    :      3.95s CPU      3.97s WALL (    1980 calls)
     ccgdiagg     :    226.92s CPU    227.83s WALL (     900 calls)
     wfcrot       :     37.44s CPU     37.54s WALL (     840 calls)

     Called by *cgdiagg:
     h_psi        :    177.29s CPU    177.90s WALL (   46075 calls)
     s_psi        :     41.57s CPU     41.77s WALL (   91310 calls)

     Called by h_psi:
     h_psi:calbec :     30.81s CPU     30.89s WALL (   46075 calls)
     vloc_psi     :    121.39s CPU    121.84s WALL (   46075 calls)
                                        0.00s GPU  (   46075 calls)
     add_vuspsi   :     24.30s CPU     24.38s WALL (   46075 calls)
     hs_1psi      :    167.92s CPU    168.55s WALL (   45235 calls)
     s_1psi       :     43.52s CPU     43.73s WALL (   45235 calls)

     General routines
     calbec       :     64.61s CPU     64.85s WALL (   93230 calls)
     fft          :      0.41s CPU      0.41s WALL (     191 calls)
     ffts         :      0.02s CPU      0.02s WALL (      15 calls)
     fftw         :    113.09s CPU    113.47s WALL (  121550 calls)

     Parallel routines

     PWSCF        :   5m 8.02s CPU   5m12.81s WALL


   This run was terminated on:  16:13:13  26Jan2026            

=------------------------------------------------------------------------------=
   JOB DONE.
=------------------------------------------------------------------------------=
