
     Program PWSCF v.7.5 starts on  9Mar2026 at  0:28:10 

     This program is part of the open-source Quantum ESPRESSO suite
     for quantum simulation of materials; please cite
         "P. Giannozzi et al., J. Phys.:Condens. Matter 21 395502 (2009);
         "P. Giannozzi et al., J. Phys.:Condens. Matter 29 465901 (2017);
         "P. Giannozzi et al., J. Chem. Phys. 152 154105 (2020);
          URL http://www.quantum-espresso.org", 
     in publications or presentations arising from this work. More details at
     http://www.quantum-espresso.org/quote

     Parallel version (MPI), running on     4 processors

     MPI processes distributed on     1 nodes
     11291 MiB available memory on the printing compute node when the environment starts

     Waiting for input...
     Reading input from standard input

     Current dimensions of program PWSCF are:
     Max number of different atomic species (ntypx) = 10
     Max number of k-points (npk) =  40000
     Max angular momentum in pseudopotentials (lmaxx) =  4

     R & G space division:  proc/nbgrp/npool/nimage =       4
     Subspace diagonalization in iterative solution of the eigenvalue problem:
     a serial algorithm will be used


     Parallelization info
     --------------------
     sticks:   dense  smooth     PW     G-vecs:    dense   smooth      PW
     Min         601     406    118                19667    10784    1718
     Max         602     407    119                19671    10787    1721
     Sum        2407    1627    475                78679    43143    6879

     Using Slab Decomposition



     bravais-lattice index     =            2
     lattice parameter (alat)  =      10.8340  a.u.
     unit-cell volume          =     317.9151 (a.u.)^3
     number of atoms/cell      =            2
     number of atomic types    =            2
     number of electrons       =        28.00
     number of Kohn-Sham states=           16
     kinetic-energy cutoff     =     100.0000  Ry
     charge density cutoff     =     600.0000  Ry
     scf convergence threshold =      1.0E-06
     mixing beta               =       0.7000
     number of iterations used =            8  plain     mixing
     Exchange-correlation= PBE
                           (   1   4   3   4   0   0   0)

     celldm(1)=  10.834038  celldm(2)=   0.000000  celldm(3)=   0.000000
     celldm(4)=   0.000000  celldm(5)=   0.000000  celldm(6)=   0.000000

     crystal axes: (cart. coord. in units of alat)
               a(1) = (  -0.500000   0.000000   0.500000 )  
               a(2) = (   0.000000   0.500000   0.500000 )  
               a(3) = (  -0.500000   0.500000   0.000000 )  

     reciprocal axes: (cart. coord. in units 2 pi/alat)
               b(1) = ( -1.000000 -1.000000  1.000000 )  
               b(2) = (  1.000000  1.000000  1.000000 )  
               b(3) = ( -1.000000  1.000000 -1.000000 )  


     PseudoPot. # 1 for Ga read from file:
     /home/nico-sachs/source/q-e/Pseudofolder/nc-sr-04_pbe_standard_upf/Ga.upf
     MD5 check sum: 2bb81bf6f0a8d9832cf3329850435ecf
     Pseudo is Norm-conserving + core correction, Zval = 13.0
     Generated using ONCVPSP code by D. R. Hamann
     Using radial grid of 1902 points,  6 beta functions with: 
                l(1) =   0
                l(2) =   0
                l(3) =   1
                l(4) =   1
                l(5) =   2
                l(6) =   2

     PseudoPot. # 2 for As read from file:
     /home/nico-sachs/source/q-e/Pseudofolder/nc-sr-04_pbe_standard_upf/As.upf
     MD5 check sum: bfe1a874457ce592347346129958e7cf
     Pseudo is Norm-conserving + core correction, Zval = 15.0
     Generated using ONCVPSP code by D. R. Hamann
     Using radial grid of 1358 points,  6 beta functions with: 
                l(1) =   0
                l(2) =   0
                l(3) =   1
                l(4) =   1
                l(5) =   2
                l(6) =   2

     atomic species   valence    mass     pseudopotential
     Ga               13.00    69.72300     Ga( 1.00)
     As               15.00    74.92100     As( 1.00)

     24 Sym. Ops. (no inversion) found


                                    s                        frac. trans.

      isym =  1     identity                                     

 cryst.   s( 1) = (     1          0          0      )
                  (     0          1          0      )
                  (     0          0          1      )

 cart.    s( 1) = (  1.0000000  0.0000000  0.0000000 )
                  (  0.0000000  1.0000000  0.0000000 )
                  (  0.0000000  0.0000000  1.0000000 )


      isym =  2     180 deg rotation - cart. axis [0,0,1]        

 cryst.   s( 2) = (     0          1         -1      )
                  (     1          0         -1      )
                  (     0          0         -1      )

 cart.    s( 2) = ( -1.0000000  0.0000000  0.0000000 )
                  (  0.0000000 -1.0000000  0.0000000 )
                  (  0.0000000  0.0000000  1.0000000 )


      isym =  3     180 deg rotation - cart. axis [0,1,0]        

 cryst.   s( 3) = (    -1          0          0      )
                  (    -1          0          1      )
                  (    -1          1          0      )

 cart.    s( 3) = ( -1.0000000  0.0000000  0.0000000 )
                  (  0.0000000  1.0000000  0.0000000 )
                  (  0.0000000  0.0000000 -1.0000000 )


      isym =  4     180 deg rotation - cart. axis [1,0,0]        

 cryst.   s( 4) = (     0         -1          1      )
                  (     0         -1          0      )
                  (     1         -1          0      )

 cart.    s( 4) = (  1.0000000  0.0000000  0.0000000 )
                  (  0.0000000 -1.0000000  0.0000000 )
                  (  0.0000000  0.0000000 -1.0000000 )


      isym =  5     120 deg rotation - cart. axis [-1,-1,-1]     

 cryst.   s( 5) = (    -1          0          1      )
                  (    -1          1          0      )
                  (    -1          0          0      )

 cart.    s( 5) = (  0.0000000  1.0000000  0.0000000 )
                  (  0.0000000  0.0000000  1.0000000 )
                  (  1.0000000  0.0000000  0.0000000 )


      isym =  6     120 deg rotation - cart. axis [-1,1,1]       

 cryst.   s( 6) = (     0          1          0      )
                  (     0          0          1      )
                  (     1          0          0      )

 cart.    s( 6) = (  0.0000000 -1.0000000  0.0000000 )
                  (  0.0000000  0.0000000  1.0000000 )
                  ( -1.0000000  0.0000000  0.0000000 )


      isym =  7     120 deg rotation - cart. axis [1,1,-1]       

 cryst.   s( 7) = (     1          0         -1      )
                  (     0          0         -1      )
                  (     0          1         -1      )

 cart.    s( 7) = (  0.0000000  1.0000000  0.0000000 )
                  (  0.0000000  0.0000000 -1.0000000 )
                  ( -1.0000000  0.0000000  0.0000000 )


      isym =  8     120 deg rotation - cart. axis [1,-1,1]       

 cryst.   s( 8) = (     0         -1          0      )
                  (     1         -1          0      )
                  (     0         -1          1      )

 cart.    s( 8) = (  0.0000000 -1.0000000  0.0000000 )
                  (  0.0000000  0.0000000 -1.0000000 )
                  (  1.0000000  0.0000000  0.0000000 )


      isym =  9     120 deg rotation - cart. axis [1,1,1]        

 cryst.   s( 9) = (     0          0         -1      )
                  (     0          1         -1      )
                  (     1          0         -1      )

 cart.    s( 9) = (  0.0000000  0.0000000  1.0000000 )
                  (  1.0000000  0.0000000  0.0000000 )
                  (  0.0000000  1.0000000  0.0000000 )


      isym = 10     120 deg rotation - cart. axis [-1,1,-1]      

 cryst.   s(10) = (    -1          1          0      )
                  (    -1          0          0      )
                  (    -1          0          1      )

 cart.    s(10) = (  0.0000000  0.0000000  1.0000000 )
                  ( -1.0000000  0.0000000  0.0000000 )
                  (  0.0000000 -1.0000000  0.0000000 )


      isym = 11     120 deg rotation - cart. axis [1,-1,-1]      

 cryst.   s(11) = (     0          0          1      )
                  (     1          0          0      )
                  (     0          1          0      )

 cart.    s(11) = (  0.0000000  0.0000000 -1.0000000 )
                  ( -1.0000000  0.0000000  0.0000000 )
                  (  0.0000000  1.0000000  0.0000000 )


      isym = 12     120 deg rotation - cart. axis [-1,-1,1]      

 cryst.   s(12) = (     1         -1          0      )
                  (     0         -1          1      )
                  (     0         -1          0      )

 cart.    s(12) = (  0.0000000  0.0000000 -1.0000000 )
                  (  1.0000000  0.0000000  0.0000000 )
                  (  0.0000000 -1.0000000  0.0000000 )


      isym = 13     inv. 180 deg rotation - cart. axis [1,1,0]   

 cryst.   s(13) = (     0          1          0      )
                  (     1          0          0      )
                  (     0          0          1      )

 cart.    s(13) = (  0.0000000 -1.0000000  0.0000000 )
                  ( -1.0000000  0.0000000  0.0000000 )
                  (  0.0000000  0.0000000  1.0000000 )


      isym = 14     inv. 180 deg rotation - cart. axis [1,-1,0]  

 cryst.   s(14) = (     1          0         -1      )
                  (     0          1         -1      )
                  (     0          0         -1      )

 cart.    s(14) = (  0.0000000  1.0000000  0.0000000 )
                  (  1.0000000  0.0000000  0.0000000 )
                  (  0.0000000  0.0000000  1.0000000 )


      isym = 15     inv.  90 deg rotation - cart. axis [0,0,-1]  

 cryst.   s(15) = (     0         -1          0      )
                  (     0         -1          1      )
                  (     1         -1          0      )

 cart.    s(15) = (  0.0000000 -1.0000000  0.0000000 )
                  (  1.0000000  0.0000000  0.0000000 )
                  (  0.0000000  0.0000000 -1.0000000 )


      isym = 16     inv.  90 deg rotation - cart. axis [0,0,1]   

 cryst.   s(16) = (    -1          0          1      )
                  (    -1          0          0      )
                  (    -1          1          0      )

 cart.    s(16) = (  0.0000000  1.0000000  0.0000000 )
                  ( -1.0000000  0.0000000  0.0000000 )
                  (  0.0000000  0.0000000 -1.0000000 )


      isym = 17     inv. 180 deg rotation - cart. axis [1,0,1]   

 cryst.   s(17) = (     1          0          0      )
                  (     0          0          1      )
                  (     0          1          0      )

 cart.    s(17) = (  0.0000000  0.0000000 -1.0000000 )
                  (  0.0000000  1.0000000  0.0000000 )
                  ( -1.0000000  0.0000000  0.0000000 )


      isym = 18     inv. 180 deg rotation - cart. axis [-1,0,1]  

 cryst.   s(18) = (    -1          0          0      )
                  (    -1          1          0      )
                  (    -1          0          1      )

 cart.    s(18) = (  0.0000000  0.0000000  1.0000000 )
                  (  0.0000000  1.0000000  0.0000000 )
                  (  1.0000000  0.0000000  0.0000000 )


      isym = 19     inv.  90 deg rotation - cart. axis [0,1,0]   

 cryst.   s(19) = (     0         -1          1      )
                  (     1         -1          0      )
                  (     0         -1          0      )

 cart.    s(19) = (  0.0000000  0.0000000 -1.0000000 )
                  (  0.0000000 -1.0000000  0.0000000 )
                  (  1.0000000  0.0000000  0.0000000 )


      isym = 20     inv.  90 deg rotation - cart. axis [0,-1,0]  

 cryst.   s(20) = (     0          1         -1      )
                  (     0          0         -1      )
                  (     1          0         -1      )

 cart.    s(20) = (  0.0000000  0.0000000  1.0000000 )
                  (  0.0000000 -1.0000000  0.0000000 )
                  ( -1.0000000  0.0000000  0.0000000 )


      isym = 21     inv. 180 deg rotation - cart. axis [0,1,1]   

 cryst.   s(21) = (     1         -1          0      )
                  (     0         -1          0      )
                  (     0         -1          1      )

 cart.    s(21) = (  1.0000000  0.0000000  0.0000000 )
                  (  0.0000000  0.0000000 -1.0000000 )
                  (  0.0000000 -1.0000000  0.0000000 )


      isym = 22     inv. 180 deg rotation - cart. axis [0,1,-1]  

 cryst.   s(22) = (     0          0          1      )
                  (     0          1          0      )
                  (     1          0          0      )

 cart.    s(22) = (  1.0000000  0.0000000  0.0000000 )
                  (  0.0000000  0.0000000  1.0000000 )
                  (  0.0000000  1.0000000  0.0000000 )


      isym = 23     inv.  90 deg rotation - cart. axis [-1,0,0]  

 cryst.   s(23) = (     0          0         -1      )
                  (     1          0         -1      )
                  (     0          1         -1      )

 cart.    s(23) = ( -1.0000000  0.0000000  0.0000000 )
                  (  0.0000000  0.0000000 -1.0000000 )
                  (  0.0000000  1.0000000  0.0000000 )


      isym = 24     inv.  90 deg rotation - cart. axis [1,0,0]   

 cryst.   s(24) = (    -1          1          0      )
                  (    -1          0          1      )
                  (    -1          0          0      )

 cart.    s(24) = ( -1.0000000  0.0000000  0.0000000 )
                  (  0.0000000  0.0000000  1.0000000 )
                  (  0.0000000 -1.0000000  0.0000000 )


     point group T_d (-43m) 
     there are  5 classes
     the character table:

       E     8C3   3C2   6S4   6s_d 
A_1    1.00  1.00  1.00  1.00  1.00
A_2    1.00  1.00  1.00 -1.00 -1.00
E      2.00 -1.00  2.00  0.00  0.00
T_1    3.00  0.00 -1.00  1.00 -1.00
T_2    3.00  0.00 -1.00 -1.00  1.00

     the symmetry operations in each class and the name of the first element:

     E        1
          identity                                               
     8C3      5    7    8    6   12    9   10   11
          120 deg rotation - cart. axis [-1,-1,-1]               
     3C2      2    3    4
          180 deg rotation - cart. axis [0,0,1]                  
     6S4     15   16   20   19   23   24
          inv.  90 deg rotation - cart. axis [0,0,-1]            
     6s_d    13   14   17   18   21   22
          inv. 180 deg rotation - cart. axis [1,1,0]             

   Cartesian axes

     site n.     atom                  positions (alat units)
         1        Ga     tau(   1) = (   0.0000000   0.0000000   0.0000000  )
         2        As     tau(   2) = (  -0.2500000   0.2500000   0.2500000  )

   Crystallographic axes

     site n.     atom                  positions (cryst. coord.)
         1        Ga     tau(   1) = (  0.0000000  0.0000000  0.0000000  )
         2        As     tau(   2) = (  0.2500000  0.2500000  0.2500000  )

     number of k points=   770
                       cart. coord. in units 2pi/alat
        k(    1) = (  -0.0250000   0.0250000   0.0250000), wk =   0.0005000
        k(    2) = (  -0.0750000   0.0750000  -0.0250000), wk =   0.0015000
        k(    3) = (  -0.1250000   0.1250000  -0.0750000), wk =   0.0015000
        k(    4) = (  -0.1750000   0.1750000  -0.1250000), wk =   0.0015000
        k(    5) = (  -0.2250000   0.2250000  -0.1750000), wk =   0.0015000
        k(    6) = (  -0.2750000   0.2750000  -0.2250000), wk =   0.0015000
        k(    7) = (  -0.3250000   0.3250000  -0.2750000), wk =   0.0015000
        k(    8) = (  -0.3750000   0.3750000  -0.3250000), wk =   0.0015000
        k(    9) = (  -0.4250000   0.4250000  -0.3750000), wk =   0.0015000
        k(   10) = (  -0.4750000   0.4750000  -0.4250000), wk =   0.0015000
        k(   11) = (   0.4750000  -0.4750000   0.5250000), wk =   0.0015000
        k(   12) = (   0.4250000  -0.4250000   0.4750000), wk =   0.0015000
        k(   13) = (   0.3750000  -0.3750000   0.4250000), wk =   0.0015000
        k(   14) = (   0.3250000  -0.3250000   0.3750000), wk =   0.0015000
        k(   15) = (   0.2750000  -0.2750000   0.3250000), wk =   0.0015000
        k(   16) = (   0.2250000  -0.2250000   0.2750000), wk =   0.0015000
        k(   17) = (   0.1750000  -0.1750000   0.2250000), wk =   0.0015000
        k(   18) = (   0.1250000  -0.1250000   0.1750000), wk =   0.0015000
        k(   19) = (   0.0750000  -0.0750000   0.1250000), wk =   0.0015000
        k(   20) = (   0.0250000  -0.0250000   0.0750000), wk =   0.0015000
        k(   21) = (  -0.0250000   0.1250000   0.0250000), wk =   0.0015000
        k(   22) = (  -0.0750000   0.1750000  -0.0250000), wk =   0.0030000
        k(   23) = (  -0.1250000   0.2250000  -0.0750000), wk =   0.0030000
        k(   24) = (  -0.1750000   0.2750000  -0.1250000), wk =   0.0030000
        k(   25) = (  -0.2250000   0.3250000  -0.1750000), wk =   0.0030000
        k(   26) = (  -0.2750000   0.3750000  -0.2250000), wk =   0.0030000
        k(   27) = (  -0.3250000   0.4250000  -0.2750000), wk =   0.0030000
        k(   28) = (  -0.3750000   0.4750000  -0.3250000), wk =   0.0030000
        k(   29) = (  -0.4250000   0.5250000  -0.3750000), wk =   0.0030000
        k(   30) = (   0.5250000  -0.4250000   0.5750000), wk =   0.0030000
        k(   31) = (   0.4750000  -0.3750000   0.5250000), wk =   0.0030000
        k(   32) = (   0.4250000  -0.3250000   0.4750000), wk =   0.0030000
        k(   33) = (   0.3750000  -0.2750000   0.4250000), wk =   0.0030000
        k(   34) = (   0.3250000  -0.2250000   0.3750000), wk =   0.0030000
        k(   35) = (   0.2750000  -0.1750000   0.3250000), wk =   0.0030000
        k(   36) = (   0.2250000  -0.1250000   0.2750000), wk =   0.0030000
        k(   37) = (   0.1750000  -0.0750000   0.2250000), wk =   0.0030000
        k(   38) = (   0.1250000  -0.0250000   0.1750000), wk =   0.0030000
        k(   39) = (   0.0750000   0.0250000   0.1250000), wk =   0.0030000
        k(   40) = (  -0.0250000   0.2250000   0.0250000), wk =   0.0015000
        k(   41) = (  -0.0750000   0.2750000  -0.0250000), wk =   0.0030000
        k(   42) = (  -0.1250000   0.3250000  -0.0750000), wk =   0.0030000
        k(   43) = (  -0.1750000   0.3750000  -0.1250000), wk =   0.0030000
        k(   44) = (  -0.2250000   0.4250000  -0.1750000), wk =   0.0030000
        k(   45) = (  -0.2750000   0.4750000  -0.2250000), wk =   0.0030000
        k(   46) = (  -0.3250000   0.5250000  -0.2750000), wk =   0.0030000
        k(   47) = (  -0.3750000   0.5750000  -0.3250000), wk =   0.0030000
        k(   48) = (   0.5750000  -0.3750000   0.6250000), wk =   0.0030000
        k(   49) = (   0.5250000  -0.3250000   0.5750000), wk =   0.0030000
        k(   50) = (   0.4750000  -0.2750000   0.5250000), wk =   0.0030000
        k(   51) = (   0.4250000  -0.2250000   0.4750000), wk =   0.0030000
        k(   52) = (   0.3750000  -0.1750000   0.4250000), wk =   0.0030000
        k(   53) = (   0.3250000  -0.1250000   0.3750000), wk =   0.0030000
        k(   54) = (   0.2750000  -0.0750000   0.3250000), wk =   0.0030000
        k(   55) = (   0.2250000  -0.0250000   0.2750000), wk =   0.0030000
        k(   56) = (   0.1750000   0.0250000   0.2250000), wk =   0.0030000
        k(   57) = (   0.1250000   0.0750000   0.1750000), wk =   0.0030000
        k(   58) = (  -0.0250000   0.3250000   0.0250000), wk =   0.0015000
        k(   59) = (  -0.0750000   0.3750000  -0.0250000), wk =   0.0030000
        k(   60) = (  -0.1250000   0.4250000  -0.0750000), wk =   0.0030000
        k(   61) = (  -0.1750000   0.4750000  -0.1250000), wk =   0.0030000
        k(   62) = (  -0.2250000   0.5250000  -0.1750000), wk =   0.0030000
        k(   63) = (  -0.2750000   0.5750000  -0.2250000), wk =   0.0030000
        k(   64) = (  -0.3250000   0.6250000  -0.2750000), wk =   0.0030000
        k(   65) = (   0.6250000  -0.3250000   0.6750000), wk =   0.0030000
        k(   66) = (   0.5750000  -0.2750000   0.6250000), wk =   0.0030000
        k(   67) = (   0.5250000  -0.2250000   0.5750000), wk =   0.0030000
        k(   68) = (   0.4750000  -0.1750000   0.5250000), wk =   0.0030000
        k(   69) = (   0.4250000  -0.1250000   0.4750000), wk =   0.0030000
        k(   70) = (   0.3750000  -0.0750000   0.4250000), wk =   0.0030000
        k(   71) = (   0.3250000  -0.0250000   0.3750000), wk =   0.0030000
        k(   72) = (   0.2750000   0.0250000   0.3250000), wk =   0.0030000
        k(   73) = (   0.2250000   0.0750000   0.2750000), wk =   0.0030000
        k(   74) = (   0.1750000   0.1250000   0.2250000), wk =   0.0030000
        k(   75) = (  -0.0250000   0.4250000   0.0250000), wk =   0.0015000
        k(   76) = (  -0.0750000   0.4750000  -0.0250000), wk =   0.0030000
        k(   77) = (  -0.1250000   0.5250000  -0.0750000), wk =   0.0030000
        k(   78) = (  -0.1750000   0.5750000  -0.1250000), wk =   0.0030000
        k(   79) = (  -0.2250000   0.6250000  -0.1750000), wk =   0.0030000
        k(   80) = (  -0.2750000   0.6750000  -0.2250000), wk =   0.0030000
        k(   81) = (   0.6750000  -0.2750000   0.7250000), wk =   0.0030000
        k(   82) = (   0.6250000  -0.2250000   0.6750000), wk =   0.0030000
        k(   83) = (   0.5750000  -0.1750000   0.6250000), wk =   0.0030000
        k(   84) = (   0.5250000  -0.1250000   0.5750000), wk =   0.0030000
        k(   85) = (   0.4750000  -0.0750000   0.5250000), wk =   0.0030000
        k(   86) = (   0.4250000  -0.0250000   0.4750000), wk =   0.0030000
        k(   87) = (   0.3750000   0.0250000   0.4250000), wk =   0.0030000
        k(   88) = (   0.3250000   0.0750000   0.3750000), wk =   0.0030000
        k(   89) = (   0.2750000   0.1250000   0.3250000), wk =   0.0030000
        k(   90) = (   0.2250000   0.1750000   0.2750000), wk =   0.0030000
        k(   91) = (  -0.0250000   0.5250000   0.0250000), wk =   0.0015000
        k(   92) = (  -0.0750000   0.5750000  -0.0250000), wk =   0.0030000
        k(   93) = (  -0.1250000   0.6250000  -0.0750000), wk =   0.0030000
        k(   94) = (  -0.1750000   0.6750000  -0.1250000), wk =   0.0030000
        k(   95) = (  -0.2250000   0.7250000  -0.1750000), wk =   0.0030000
        k(   96) = (   0.7250000  -0.2250000   0.7750000), wk =   0.0030000
        k(   97) = (   0.6750000  -0.1750000   0.7250000), wk =   0.0030000
        k(   98) = (   0.6250000  -0.1250000   0.6750000), wk =   0.0030000
        k(   99) = (   0.5750000  -0.0750000   0.6250000), wk =   0.0030000
        k(  100) = (   0.5250000  -0.0250000   0.5750000), wk =   0.0030000
        k(  101) = (   0.4750000   0.0250000   0.5250000), wk =   0.0030000
        k(  102) = (   0.4250000   0.0750000   0.4750000), wk =   0.0030000
        k(  103) = (   0.3750000   0.1250000   0.4250000), wk =   0.0030000
        k(  104) = (   0.3250000   0.1750000   0.3750000), wk =   0.0030000
        k(  105) = (   0.2750000   0.2250000   0.3250000), wk =   0.0030000
        k(  106) = (  -0.0250000   0.6250000   0.0250000), wk =   0.0015000
        k(  107) = (  -0.0750000   0.6750000  -0.0250000), wk =   0.0030000
        k(  108) = (  -0.1250000   0.7250000  -0.0750000), wk =   0.0030000
        k(  109) = (  -0.1750000   0.7750000  -0.1250000), wk =   0.0030000
        k(  110) = (   0.7750000  -0.1750000   0.8250000), wk =   0.0030000
        k(  111) = (   0.7250000  -0.1250000   0.7750000), wk =   0.0030000
        k(  112) = (   0.6750000  -0.0750000   0.7250000), wk =   0.0030000
        k(  113) = (   0.6250000  -0.0250000   0.6750000), wk =   0.0030000
        k(  114) = (   0.5750000   0.0250000   0.6250000), wk =   0.0030000
        k(  115) = (   0.5250000   0.0750000   0.5750000), wk =   0.0030000
        k(  116) = (   0.4750000   0.1250000   0.5250000), wk =   0.0030000
        k(  117) = (   0.4250000   0.1750000   0.4750000), wk =   0.0030000
        k(  118) = (   0.3750000   0.2250000   0.4250000), wk =   0.0030000
        k(  119) = (   0.3250000   0.2750000   0.3750000), wk =   0.0030000
        k(  120) = (  -0.0250000   0.7250000   0.0250000), wk =   0.0015000
        k(  121) = (  -0.0750000   0.7750000  -0.0250000), wk =   0.0030000
        k(  122) = (  -0.1250000   0.8250000  -0.0750000), wk =   0.0030000
        k(  123) = (   0.8250000  -0.1250000   0.8750000), wk =   0.0030000
        k(  124) = (   0.7750000  -0.0750000   0.8250000), wk =   0.0030000
        k(  125) = (   0.7250000  -0.0250000   0.7750000), wk =   0.0030000
        k(  126) = (   0.6750000   0.0250000   0.7250000), wk =   0.0030000
        k(  127) = (   0.6250000   0.0750000   0.6750000), wk =   0.0030000
        k(  128) = (   0.5750000   0.1250000   0.6250000), wk =   0.0030000
        k(  129) = (   0.5250000   0.1750000   0.5750000), wk =   0.0030000
        k(  130) = (   0.4750000   0.2250000   0.5250000), wk =   0.0030000
        k(  131) = (   0.4250000   0.2750000   0.4750000), wk =   0.0030000
        k(  132) = (   0.3750000   0.3250000   0.4250000), wk =   0.0030000
        k(  133) = (  -0.0250000   0.8250000   0.0250000), wk =   0.0015000
        k(  134) = (  -0.0750000   0.8750000  -0.0250000), wk =   0.0030000
        k(  135) = (   0.8750000  -0.0750000   0.9250000), wk =   0.0030000
        k(  136) = (   0.8250000  -0.0250000   0.8750000), wk =   0.0030000
        k(  137) = (   0.7750000   0.0250000   0.8250000), wk =   0.0030000
        k(  138) = (   0.7250000   0.0750000   0.7750000), wk =   0.0030000
        k(  139) = (   0.6750000   0.1250000   0.7250000), wk =   0.0030000
        k(  140) = (   0.6250000   0.1750000   0.6750000), wk =   0.0030000
        k(  141) = (   0.5750000   0.2250000   0.6250000), wk =   0.0030000
        k(  142) = (   0.5250000   0.2750000   0.5750000), wk =   0.0030000
        k(  143) = (   0.4750000   0.3250000   0.5250000), wk =   0.0030000
        k(  144) = (   0.4250000   0.3750000   0.4750000), wk =   0.0030000
        k(  145) = (  -0.0250000   0.9250000   0.0250000), wk =   0.0015000
        k(  146) = (   0.9250000  -0.0250000   0.9750000), wk =   0.0030000
        k(  147) = (   0.8750000   0.0250000   0.9250000), wk =   0.0030000
        k(  148) = (   0.8250000   0.0750000   0.8750000), wk =   0.0030000
        k(  149) = (   0.7750000   0.1250000   0.8250000), wk =   0.0030000
        k(  150) = (   0.7250000   0.1750000   0.7750000), wk =   0.0030000
        k(  151) = (   0.6750000   0.2250000   0.7250000), wk =   0.0030000
        k(  152) = (   0.6250000   0.2750000   0.6750000), wk =   0.0030000
        k(  153) = (   0.5750000   0.3250000   0.6250000), wk =   0.0030000
        k(  154) = (   0.5250000   0.3750000   0.5750000), wk =   0.0030000
        k(  155) = (   0.4750000   0.4250000   0.5250000), wk =   0.0030000
        k(  156) = (  -0.0250000  -0.9750000   0.0250000), wk =   0.0015000
        k(  157) = (  -0.0750000  -0.9250000  -0.0250000), wk =   0.0030000
        k(  158) = (  -0.1250000  -0.8750000  -0.0750000), wk =   0.0030000
        k(  159) = (  -0.1750000  -0.8250000  -0.1250000), wk =   0.0030000
        k(  160) = (  -0.2250000  -0.7750000  -0.1750000), wk =   0.0030000
        k(  161) = (  -0.2750000  -0.7250000  -0.2250000), wk =   0.0030000
        k(  162) = (  -0.3250000  -0.6750000  -0.2750000), wk =   0.0030000
        k(  163) = (  -0.3750000  -0.6250000  -0.3250000), wk =   0.0030000
        k(  164) = (  -0.4250000  -0.5750000  -0.3750000), wk =   0.0030000
        k(  165) = (  -0.0250000  -0.8750000   0.0250000), wk =   0.0015000
        k(  166) = (  -0.0750000  -0.8250000  -0.0250000), wk =   0.0030000
        k(  167) = (  -0.1250000  -0.7750000  -0.0750000), wk =   0.0030000
        k(  168) = (  -0.1750000  -0.7250000  -0.1250000), wk =   0.0030000
        k(  169) = (  -0.2250000  -0.6750000  -0.1750000), wk =   0.0030000
        k(  170) = (  -0.2750000  -0.6250000  -0.2250000), wk =   0.0030000
        k(  171) = (  -0.3250000  -0.5750000  -0.2750000), wk =   0.0030000
        k(  172) = (  -0.3750000  -0.5250000  -0.3250000), wk =   0.0030000
        k(  173) = (  -0.0250000  -0.7750000   0.0250000), wk =   0.0015000
        k(  174) = (  -0.0750000  -0.7250000  -0.0250000), wk =   0.0030000
        k(  175) = (  -0.1250000  -0.6750000  -0.0750000), wk =   0.0030000
        k(  176) = (  -0.1750000  -0.6250000  -0.1250000), wk =   0.0030000
        k(  177) = (  -0.2250000  -0.5750000  -0.1750000), wk =   0.0030000
        k(  178) = (  -0.2750000  -0.5250000  -0.2250000), wk =   0.0030000
        k(  179) = (  -0.3250000  -0.4750000  -0.2750000), wk =   0.0030000
        k(  180) = (  -0.0250000  -0.6750000   0.0250000), wk =   0.0015000
        k(  181) = (  -0.0750000  -0.6250000  -0.0250000), wk =   0.0030000
        k(  182) = (  -0.1250000  -0.5750000  -0.0750000), wk =   0.0030000
        k(  183) = (  -0.1750000  -0.5250000  -0.1250000), wk =   0.0030000
        k(  184) = (  -0.2250000  -0.4750000  -0.1750000), wk =   0.0030000
        k(  185) = (  -0.2750000  -0.4250000  -0.2250000), wk =   0.0030000
        k(  186) = (  -0.0250000  -0.5750000   0.0250000), wk =   0.0015000
        k(  187) = (  -0.0750000  -0.5250000  -0.0250000), wk =   0.0030000
        k(  188) = (  -0.1250000  -0.4750000  -0.0750000), wk =   0.0030000
        k(  189) = (  -0.1750000  -0.4250000  -0.1250000), wk =   0.0030000
        k(  190) = (  -0.2250000  -0.3750000  -0.1750000), wk =   0.0030000
        k(  191) = (  -0.0250000  -0.4750000   0.0250000), wk =   0.0015000
        k(  192) = (  -0.0750000  -0.4250000  -0.0250000), wk =   0.0030000
        k(  193) = (  -0.1250000  -0.3750000  -0.0750000), wk =   0.0030000
        k(  194) = (  -0.1750000  -0.3250000  -0.1250000), wk =   0.0030000
        k(  195) = (  -0.0250000  -0.3750000   0.0250000), wk =   0.0015000
        k(  196) = (  -0.0750000  -0.3250000  -0.0250000), wk =   0.0030000
        k(  197) = (  -0.1250000  -0.2750000  -0.0750000), wk =   0.0030000
        k(  198) = (  -0.0250000  -0.2750000   0.0250000), wk =   0.0015000
        k(  199) = (  -0.0750000  -0.2250000  -0.0250000), wk =   0.0030000
        k(  200) = (  -0.0250000  -0.1750000   0.0250000), wk =   0.0015000
        k(  201) = (  -0.0750000   0.0750000   0.0750000), wk =   0.0005000
        k(  202) = (  -0.1250000   0.1250000   0.0250000), wk =   0.0015000
        k(  203) = (  -0.1750000   0.1750000  -0.0250000), wk =   0.0015000
        k(  204) = (  -0.2250000   0.2250000  -0.0750000), wk =   0.0015000
        k(  205) = (  -0.2750000   0.2750000  -0.1250000), wk =   0.0015000
        k(  206) = (  -0.3250000   0.3250000  -0.1750000), wk =   0.0015000
        k(  207) = (  -0.3750000   0.3750000  -0.2250000), wk =   0.0015000
        k(  208) = (  -0.4250000   0.4250000  -0.2750000), wk =   0.0015000
        k(  209) = (  -0.4750000   0.4750000  -0.3250000), wk =   0.0015000
        k(  210) = (   0.4750000  -0.4750000   0.6250000), wk =   0.0015000
        k(  211) = (   0.4250000  -0.4250000   0.5750000), wk =   0.0015000
        k(  212) = (   0.3750000  -0.3750000   0.5250000), wk =   0.0015000
        k(  213) = (   0.3250000  -0.3250000   0.4750000), wk =   0.0015000
        k(  214) = (   0.2750000  -0.2750000   0.4250000), wk =   0.0015000
        k(  215) = (   0.2250000  -0.2250000   0.3750000), wk =   0.0015000
        k(  216) = (   0.1750000  -0.1750000   0.3250000), wk =   0.0015000
        k(  217) = (   0.1250000  -0.1250000   0.2750000), wk =   0.0015000
        k(  218) = (   0.0750000  -0.0750000   0.2250000), wk =   0.0015000
        k(  219) = (  -0.0750000   0.1750000   0.0750000), wk =   0.0015000
        k(  220) = (  -0.1250000   0.2250000   0.0250000), wk =   0.0030000
        k(  221) = (  -0.1750000   0.2750000  -0.0250000), wk =   0.0030000
        k(  222) = (  -0.2250000   0.3250000  -0.0750000), wk =   0.0030000
        k(  223) = (  -0.2750000   0.3750000  -0.1250000), wk =   0.0030000
        k(  224) = (  -0.3250000   0.4250000  -0.1750000), wk =   0.0030000
        k(  225) = (  -0.3750000   0.4750000  -0.2250000), wk =   0.0030000
        k(  226) = (  -0.4250000   0.5250000  -0.2750000), wk =   0.0030000
        k(  227) = (   0.5250000  -0.4250000   0.6750000), wk =   0.0030000
        k(  228) = (   0.4750000  -0.3750000   0.6250000), wk =   0.0030000
        k(  229) = (   0.4250000  -0.3250000   0.5750000), wk =   0.0030000
        k(  230) = (   0.3750000  -0.2750000   0.5250000), wk =   0.0030000
        k(  231) = (   0.3250000  -0.2250000   0.4750000), wk =   0.0030000
        k(  232) = (   0.2750000  -0.1750000   0.4250000), wk =   0.0030000
        k(  233) = (   0.2250000  -0.1250000   0.3750000), wk =   0.0030000
        k(  234) = (   0.1750000  -0.0750000   0.3250000), wk =   0.0030000
        k(  235) = (   0.1250000  -0.0250000   0.2750000), wk =   0.0030000
        k(  236) = (  -0.0750000   0.2750000   0.0750000), wk =   0.0015000
        k(  237) = (  -0.1250000   0.3250000   0.0250000), wk =   0.0030000
        k(  238) = (  -0.1750000   0.3750000  -0.0250000), wk =   0.0030000
        k(  239) = (  -0.2250000   0.4250000  -0.0750000), wk =   0.0030000
        k(  240) = (  -0.2750000   0.4750000  -0.1250000), wk =   0.0030000
        k(  241) = (  -0.3250000   0.5250000  -0.1750000), wk =   0.0030000
        k(  242) = (  -0.3750000   0.5750000  -0.2250000), wk =   0.0030000
        k(  243) = (   0.5750000  -0.3750000   0.7250000), wk =   0.0030000
        k(  244) = (   0.5250000  -0.3250000   0.6750000), wk =   0.0030000
        k(  245) = (   0.4750000  -0.2750000   0.6250000), wk =   0.0030000
        k(  246) = (   0.4250000  -0.2250000   0.5750000), wk =   0.0030000
        k(  247) = (   0.3750000  -0.1750000   0.5250000), wk =   0.0030000
        k(  248) = (   0.3250000  -0.1250000   0.4750000), wk =   0.0030000
        k(  249) = (   0.2750000  -0.0750000   0.4250000), wk =   0.0030000
        k(  250) = (   0.2250000  -0.0250000   0.3750000), wk =   0.0030000
        k(  251) = (   0.1750000   0.0250000   0.3250000), wk =   0.0030000
        k(  252) = (  -0.0750000   0.3750000   0.0750000), wk =   0.0015000
        k(  253) = (  -0.1250000   0.4250000   0.0250000), wk =   0.0030000
        k(  254) = (  -0.1750000   0.4750000  -0.0250000), wk =   0.0030000
        k(  255) = (  -0.2250000   0.5250000  -0.0750000), wk =   0.0030000
        k(  256) = (  -0.2750000   0.5750000  -0.1250000), wk =   0.0030000
        k(  257) = (  -0.3250000   0.6250000  -0.1750000), wk =   0.0030000
        k(  258) = (   0.6250000  -0.3250000   0.7750000), wk =   0.0030000
        k(  259) = (   0.5750000  -0.2750000   0.7250000), wk =   0.0030000
        k(  260) = (   0.5250000  -0.2250000   0.6750000), wk =   0.0030000
        k(  261) = (   0.4750000  -0.1750000   0.6250000), wk =   0.0030000
        k(  262) = (   0.4250000  -0.1250000   0.5750000), wk =   0.0030000
        k(  263) = (   0.3750000  -0.0750000   0.5250000), wk =   0.0030000
        k(  264) = (   0.3250000  -0.0250000   0.4750000), wk =   0.0030000
        k(  265) = (   0.2750000   0.0250000   0.4250000), wk =   0.0030000
        k(  266) = (   0.2250000   0.0750000   0.3750000), wk =   0.0030000
        k(  267) = (  -0.0750000   0.4750000   0.0750000), wk =   0.0015000
        k(  268) = (  -0.1250000   0.5250000   0.0250000), wk =   0.0030000
        k(  269) = (  -0.1750000   0.5750000  -0.0250000), wk =   0.0030000
        k(  270) = (  -0.2250000   0.6250000  -0.0750000), wk =   0.0030000
        k(  271) = (  -0.2750000   0.6750000  -0.1250000), wk =   0.0030000
        k(  272) = (   0.6750000  -0.2750000   0.8250000), wk =   0.0030000
        k(  273) = (   0.6250000  -0.2250000   0.7750000), wk =   0.0030000
        k(  274) = (   0.5750000  -0.1750000   0.7250000), wk =   0.0030000
        k(  275) = (   0.5250000  -0.1250000   0.6750000), wk =   0.0030000
        k(  276) = (   0.4750000  -0.0750000   0.6250000), wk =   0.0030000
        k(  277) = (   0.4250000  -0.0250000   0.5750000), wk =   0.0030000
        k(  278) = (   0.3750000   0.0250000   0.5250000), wk =   0.0030000
        k(  279) = (   0.3250000   0.0750000   0.4750000), wk =   0.0030000
        k(  280) = (   0.2750000   0.1250000   0.4250000), wk =   0.0030000
        k(  281) = (  -0.0750000   0.5750000   0.0750000), wk =   0.0015000
        k(  282) = (  -0.1250000   0.6250000   0.0250000), wk =   0.0030000
        k(  283) = (  -0.1750000   0.6750000  -0.0250000), wk =   0.0030000
        k(  284) = (  -0.2250000   0.7250000  -0.0750000), wk =   0.0030000
        k(  285) = (   0.7250000  -0.2250000   0.8750000), wk =   0.0030000
        k(  286) = (   0.6750000  -0.1750000   0.8250000), wk =   0.0030000
        k(  287) = (   0.6250000  -0.1250000   0.7750000), wk =   0.0030000
        k(  288) = (   0.5750000  -0.0750000   0.7250000), wk =   0.0030000
        k(  289) = (   0.5250000  -0.0250000   0.6750000), wk =   0.0030000
        k(  290) = (   0.4750000   0.0250000   0.6250000), wk =   0.0030000
        k(  291) = (   0.4250000   0.0750000   0.5750000), wk =   0.0030000
        k(  292) = (   0.3750000   0.1250000   0.5250000), wk =   0.0030000
        k(  293) = (   0.3250000   0.1750000   0.4750000), wk =   0.0030000
        k(  294) = (  -0.0750000   0.6750000   0.0750000), wk =   0.0015000
        k(  295) = (  -0.1250000   0.7250000   0.0250000), wk =   0.0030000
        k(  296) = (  -0.1750000   0.7750000  -0.0250000), wk =   0.0030000
        k(  297) = (   0.7750000  -0.1750000   0.9250000), wk =   0.0030000
        k(  298) = (   0.7250000  -0.1250000   0.8750000), wk =   0.0030000
        k(  299) = (   0.6750000  -0.0750000   0.8250000), wk =   0.0030000
        k(  300) = (   0.6250000  -0.0250000   0.7750000), wk =   0.0030000
        k(  301) = (   0.5750000   0.0250000   0.7250000), wk =   0.0030000
        k(  302) = (   0.5250000   0.0750000   0.6750000), wk =   0.0030000
        k(  303) = (   0.4750000   0.1250000   0.6250000), wk =   0.0030000
        k(  304) = (   0.4250000   0.1750000   0.5750000), wk =   0.0030000
        k(  305) = (   0.3750000   0.2250000   0.5250000), wk =   0.0030000
        k(  306) = (  -0.0750000   0.7750000   0.0750000), wk =   0.0015000
        k(  307) = (  -0.1250000   0.8250000   0.0250000), wk =   0.0030000
        k(  308) = (   0.8250000  -0.1250000   0.9750000), wk =   0.0030000
        k(  309) = (   0.7750000  -0.0750000   0.9250000), wk =   0.0030000
        k(  310) = (   0.7250000  -0.0250000   0.8750000), wk =   0.0030000
        k(  311) = (   0.6750000   0.0250000   0.8250000), wk =   0.0030000
        k(  312) = (   0.6250000   0.0750000   0.7750000), wk =   0.0030000
        k(  313) = (   0.5750000   0.1250000   0.7250000), wk =   0.0030000
        k(  314) = (   0.5250000   0.1750000   0.6750000), wk =   0.0030000
        k(  315) = (   0.4750000   0.2250000   0.6250000), wk =   0.0030000
        k(  316) = (   0.4250000   0.2750000   0.5750000), wk =   0.0030000
        k(  317) = (  -0.0750000   0.8750000   0.0750000), wk =   0.0015000
        k(  318) = (   0.8750000  -0.0750000   1.0250000), wk =   0.0030000
        k(  319) = (   0.8250000  -0.0250000   0.9750000), wk =   0.0030000
        k(  320) = (   0.7750000   0.0250000   0.9250000), wk =   0.0030000
        k(  321) = (   0.7250000   0.0750000   0.8750000), wk =   0.0030000
        k(  322) = (   0.6750000   0.1250000   0.8250000), wk =   0.0030000
        k(  323) = (   0.6250000   0.1750000   0.7750000), wk =   0.0030000
        k(  324) = (   0.5750000   0.2250000   0.7250000), wk =   0.0030000
        k(  325) = (   0.5250000   0.2750000   0.6750000), wk =   0.0030000
        k(  326) = (   0.4750000   0.3250000   0.6250000), wk =   0.0030000
        k(  327) = (  -0.0750000  -1.0250000   0.0750000), wk =   0.0015000
        k(  328) = (  -0.1250000  -0.9750000   0.0250000), wk =   0.0030000
        k(  329) = (  -0.1750000  -0.9250000  -0.0250000), wk =   0.0030000
        k(  330) = (  -0.2250000  -0.8750000  -0.0750000), wk =   0.0030000
        k(  331) = (  -0.2750000  -0.8250000  -0.1250000), wk =   0.0030000
        k(  332) = (  -0.3250000  -0.7750000  -0.1750000), wk =   0.0030000
        k(  333) = (  -0.3750000  -0.7250000  -0.2250000), wk =   0.0030000
        k(  334) = (  -0.4250000  -0.6750000  -0.2750000), wk =   0.0030000
        k(  335) = (  -0.0750000  -0.9250000   0.0750000), wk =   0.0015000
        k(  336) = (  -0.1250000  -0.8750000   0.0250000), wk =   0.0030000
        k(  337) = (  -0.1750000  -0.8250000  -0.0250000), wk =   0.0030000
        k(  338) = (  -0.2250000  -0.7750000  -0.0750000), wk =   0.0030000
        k(  339) = (  -0.2750000  -0.7250000  -0.1250000), wk =   0.0030000
        k(  340) = (  -0.3250000  -0.6750000  -0.1750000), wk =   0.0030000
        k(  341) = (  -0.3750000  -0.6250000  -0.2250000), wk =   0.0030000
        k(  342) = (  -0.0750000  -0.8250000   0.0750000), wk =   0.0015000
        k(  343) = (  -0.1250000  -0.7750000   0.0250000), wk =   0.0030000
        k(  344) = (  -0.1750000  -0.7250000  -0.0250000), wk =   0.0030000
        k(  345) = (  -0.2250000  -0.6750000  -0.0750000), wk =   0.0030000
        k(  346) = (  -0.2750000  -0.6250000  -0.1250000), wk =   0.0030000
        k(  347) = (  -0.3250000  -0.5750000  -0.1750000), wk =   0.0030000
        k(  348) = (  -0.0750000  -0.7250000   0.0750000), wk =   0.0015000
        k(  349) = (  -0.1250000  -0.6750000   0.0250000), wk =   0.0030000
        k(  350) = (  -0.1750000  -0.6250000  -0.0250000), wk =   0.0030000
        k(  351) = (  -0.2250000  -0.5750000  -0.0750000), wk =   0.0030000
        k(  352) = (  -0.2750000  -0.5250000  -0.1250000), wk =   0.0030000
        k(  353) = (  -0.0750000  -0.6250000   0.0750000), wk =   0.0015000
        k(  354) = (  -0.1250000  -0.5750000   0.0250000), wk =   0.0030000
        k(  355) = (  -0.1750000  -0.5250000  -0.0250000), wk =   0.0030000
        k(  356) = (  -0.2250000  -0.4750000  -0.0750000), wk =   0.0030000
        k(  357) = (  -0.0750000  -0.5250000   0.0750000), wk =   0.0015000
        k(  358) = (  -0.1250000  -0.4750000   0.0250000), wk =   0.0030000
        k(  359) = (  -0.1750000  -0.4250000  -0.0250000), wk =   0.0030000
        k(  360) = (  -0.0750000  -0.4250000   0.0750000), wk =   0.0015000
        k(  361) = (  -0.1250000  -0.3750000   0.0250000), wk =   0.0030000
        k(  362) = (  -0.0750000  -0.3250000   0.0750000), wk =   0.0015000
        k(  363) = (  -0.1250000   0.1250000   0.1250000), wk =   0.0005000
        k(  364) = (  -0.1750000   0.1750000   0.0750000), wk =   0.0015000
        k(  365) = (  -0.2250000   0.2250000   0.0250000), wk =   0.0015000
        k(  366) = (  -0.2750000   0.2750000  -0.0250000), wk =   0.0015000
        k(  367) = (  -0.3250000   0.3250000  -0.0750000), wk =   0.0015000
        k(  368) = (  -0.3750000   0.3750000  -0.1250000), wk =   0.0015000
        k(  369) = (  -0.4250000   0.4250000  -0.1750000), wk =   0.0015000
        k(  370) = (  -0.4750000   0.4750000  -0.2250000), wk =   0.0015000
        k(  371) = (   0.4750000  -0.4750000   0.7250000), wk =   0.0015000
        k(  372) = (   0.4250000  -0.4250000   0.6750000), wk =   0.0015000
        k(  373) = (   0.3750000  -0.3750000   0.6250000), wk =   0.0015000
        k(  374) = (   0.3250000  -0.3250000   0.5750000), wk =   0.0015000
        k(  375) = (   0.2750000  -0.2750000   0.5250000), wk =   0.0015000
        k(  376) = (   0.2250000  -0.2250000   0.4750000), wk =   0.0015000
        k(  377) = (   0.1750000  -0.1750000   0.4250000), wk =   0.0015000
        k(  378) = (   0.1250000  -0.1250000   0.3750000), wk =   0.0015000
        k(  379) = (  -0.1250000   0.2250000   0.1250000), wk =   0.0015000
        k(  380) = (  -0.1750000   0.2750000   0.0750000), wk =   0.0030000
        k(  381) = (  -0.2250000   0.3250000   0.0250000), wk =   0.0030000
        k(  382) = (  -0.2750000   0.3750000  -0.0250000), wk =   0.0030000
        k(  383) = (  -0.3250000   0.4250000  -0.0750000), wk =   0.0030000
        k(  384) = (  -0.3750000   0.4750000  -0.1250000), wk =   0.0030000
        k(  385) = (  -0.4250000   0.5250000  -0.1750000), wk =   0.0030000
        k(  386) = (   0.5250000  -0.4250000   0.7750000), wk =   0.0030000
        k(  387) = (   0.4750000  -0.3750000   0.7250000), wk =   0.0030000
        k(  388) = (   0.4250000  -0.3250000   0.6750000), wk =   0.0030000
        k(  389) = (   0.3750000  -0.2750000   0.6250000), wk =   0.0030000
        k(  390) = (   0.3250000  -0.2250000   0.5750000), wk =   0.0030000
        k(  391) = (   0.2750000  -0.1750000   0.5250000), wk =   0.0030000
        k(  392) = (   0.2250000  -0.1250000   0.4750000), wk =   0.0030000
        k(  393) = (   0.1750000  -0.0750000   0.4250000), wk =   0.0030000
        k(  394) = (  -0.1250000   0.3250000   0.1250000), wk =   0.0015000
        k(  395) = (  -0.1750000   0.3750000   0.0750000), wk =   0.0030000
        k(  396) = (  -0.2250000   0.4250000   0.0250000), wk =   0.0030000
        k(  397) = (  -0.2750000   0.4750000  -0.0250000), wk =   0.0030000
        k(  398) = (  -0.3250000   0.5250000  -0.0750000), wk =   0.0030000
        k(  399) = (  -0.3750000   0.5750000  -0.1250000), wk =   0.0030000
        k(  400) = (   0.5750000  -0.3750000   0.8250000), wk =   0.0030000
        k(  401) = (   0.5250000  -0.3250000   0.7750000), wk =   0.0030000
        k(  402) = (   0.4750000  -0.2750000   0.7250000), wk =   0.0030000
        k(  403) = (   0.4250000  -0.2250000   0.6750000), wk =   0.0030000
        k(  404) = (   0.3750000  -0.1750000   0.6250000), wk =   0.0030000
        k(  405) = (   0.3250000  -0.1250000   0.5750000), wk =   0.0030000
        k(  406) = (   0.2750000  -0.0750000   0.5250000), wk =   0.0030000
        k(  407) = (   0.2250000  -0.0250000   0.4750000), wk =   0.0030000
        k(  408) = (  -0.1250000   0.4250000   0.1250000), wk =   0.0015000
        k(  409) = (  -0.1750000   0.4750000   0.0750000), wk =   0.0030000
        k(  410) = (  -0.2250000   0.5250000   0.0250000), wk =   0.0030000
        k(  411) = (  -0.2750000   0.5750000  -0.0250000), wk =   0.0030000
        k(  412) = (  -0.3250000   0.6250000  -0.0750000), wk =   0.0030000
        k(  413) = (   0.6250000  -0.3250000   0.8750000), wk =   0.0030000
        k(  414) = (   0.5750000  -0.2750000   0.8250000), wk =   0.0030000
        k(  415) = (   0.5250000  -0.2250000   0.7750000), wk =   0.0030000
        k(  416) = (   0.4750000  -0.1750000   0.7250000), wk =   0.0030000
        k(  417) = (   0.4250000  -0.1250000   0.6750000), wk =   0.0030000
        k(  418) = (   0.3750000  -0.0750000   0.6250000), wk =   0.0030000
        k(  419) = (   0.3250000  -0.0250000   0.5750000), wk =   0.0030000
        k(  420) = (   0.2750000   0.0250000   0.5250000), wk =   0.0030000
        k(  421) = (  -0.1250000   0.5250000   0.1250000), wk =   0.0015000
        k(  422) = (  -0.1750000   0.5750000   0.0750000), wk =   0.0030000
        k(  423) = (  -0.2250000   0.6250000   0.0250000), wk =   0.0030000
        k(  424) = (  -0.2750000   0.6750000  -0.0250000), wk =   0.0030000
        k(  425) = (   0.6750000  -0.2750000   0.9250000), wk =   0.0030000
        k(  426) = (   0.6250000  -0.2250000   0.8750000), wk =   0.0030000
        k(  427) = (   0.5750000  -0.1750000   0.8250000), wk =   0.0030000
        k(  428) = (   0.5250000  -0.1250000   0.7750000), wk =   0.0030000
        k(  429) = (   0.4750000  -0.0750000   0.7250000), wk =   0.0030000
        k(  430) = (   0.4250000  -0.0250000   0.6750000), wk =   0.0030000
        k(  431) = (   0.3750000   0.0250000   0.6250000), wk =   0.0030000
        k(  432) = (   0.3250000   0.0750000   0.5750000), wk =   0.0030000
        k(  433) = (  -0.1250000   0.6250000   0.1250000), wk =   0.0015000
        k(  434) = (  -0.1750000   0.6750000   0.0750000), wk =   0.0030000
        k(  435) = (  -0.2250000   0.7250000   0.0250000), wk =   0.0030000
        k(  436) = (   0.7250000  -0.2250000   0.9750000), wk =   0.0030000
        k(  437) = (   0.6750000  -0.1750000   0.9250000), wk =   0.0030000
        k(  438) = (   0.6250000  -0.1250000   0.8750000), wk =   0.0030000
        k(  439) = (   0.5750000  -0.0750000   0.8250000), wk =   0.0030000
        k(  440) = (   0.5250000  -0.0250000   0.7750000), wk =   0.0030000
        k(  441) = (   0.4750000   0.0250000   0.7250000), wk =   0.0030000
        k(  442) = (   0.4250000   0.0750000   0.6750000), wk =   0.0030000
        k(  443) = (   0.3750000   0.1250000   0.6250000), wk =   0.0030000
        k(  444) = (  -0.1250000   0.7250000   0.1250000), wk =   0.0015000
        k(  445) = (  -0.1750000   0.7750000   0.0750000), wk =   0.0030000
        k(  446) = (   0.7750000  -0.1750000   1.0250000), wk =   0.0030000
        k(  447) = (   0.7250000  -0.1250000   0.9750000), wk =   0.0030000
        k(  448) = (   0.6750000  -0.0750000   0.9250000), wk =   0.0030000
        k(  449) = (   0.6250000  -0.0250000   0.8750000), wk =   0.0030000
        k(  450) = (   0.5750000   0.0250000   0.8250000), wk =   0.0030000
        k(  451) = (   0.5250000   0.0750000   0.7750000), wk =   0.0030000
        k(  452) = (   0.4750000   0.1250000   0.7250000), wk =   0.0030000
        k(  453) = (   0.4250000   0.1750000   0.6750000), wk =   0.0030000
        k(  454) = (  -0.1250000   0.8250000   0.1250000), wk =   0.0015000
        k(  455) = (   0.8250000  -0.1250000   1.0750000), wk =   0.0030000
        k(  456) = (   0.7750000  -0.0750000   1.0250000), wk =   0.0030000
        k(  457) = (   0.7250000  -0.0250000   0.9750000), wk =   0.0030000
        k(  458) = (   0.6750000   0.0250000   0.9250000), wk =   0.0030000
        k(  459) = (   0.6250000   0.0750000   0.8750000), wk =   0.0030000
        k(  460) = (   0.5750000   0.1250000   0.8250000), wk =   0.0030000
        k(  461) = (   0.5250000   0.1750000   0.7750000), wk =   0.0030000
        k(  462) = (   0.4750000   0.2250000   0.7250000), wk =   0.0030000
        k(  463) = (  -0.1250000  -1.0750000   0.1250000), wk =   0.0015000
        k(  464) = (  -0.1750000  -1.0250000   0.0750000), wk =   0.0030000
        k(  465) = (  -0.2250000  -0.9750000   0.0250000), wk =   0.0030000
        k(  466) = (  -0.2750000  -0.9250000  -0.0250000), wk =   0.0030000
        k(  467) = (  -0.3250000  -0.8750000  -0.0750000), wk =   0.0030000
        k(  468) = (  -0.3750000  -0.8250000  -0.1250000), wk =   0.0030000
        k(  469) = (  -0.4250000  -0.7750000  -0.1750000), wk =   0.0030000
        k(  470) = (  -0.1250000  -0.9750000   0.1250000), wk =   0.0015000
        k(  471) = (  -0.1750000  -0.9250000   0.0750000), wk =   0.0030000
        k(  472) = (  -0.2250000  -0.8750000   0.0250000), wk =   0.0030000
        k(  473) = (  -0.2750000  -0.8250000  -0.0250000), wk =   0.0030000
        k(  474) = (  -0.3250000  -0.7750000  -0.0750000), wk =   0.0030000
        k(  475) = (  -0.3750000  -0.7250000  -0.1250000), wk =   0.0030000
        k(  476) = (  -0.1250000  -0.8750000   0.1250000), wk =   0.0015000
        k(  477) = (  -0.1750000  -0.8250000   0.0750000), wk =   0.0030000
        k(  478) = (  -0.2250000  -0.7750000   0.0250000), wk =   0.0030000
        k(  479) = (  -0.2750000  -0.7250000  -0.0250000), wk =   0.0030000
        k(  480) = (  -0.3250000  -0.6750000  -0.0750000), wk =   0.0030000
        k(  481) = (  -0.1250000  -0.7750000   0.1250000), wk =   0.0015000
        k(  482) = (  -0.1750000  -0.7250000   0.0750000), wk =   0.0030000
        k(  483) = (  -0.2250000  -0.6750000   0.0250000), wk =   0.0030000
        k(  484) = (  -0.2750000  -0.6250000  -0.0250000), wk =   0.0030000
        k(  485) = (  -0.1250000  -0.6750000   0.1250000), wk =   0.0015000
        k(  486) = (  -0.1750000  -0.6250000   0.0750000), wk =   0.0030000
        k(  487) = (  -0.2250000  -0.5750000   0.0250000), wk =   0.0030000
        k(  488) = (  -0.1250000  -0.5750000   0.1250000), wk =   0.0015000
        k(  489) = (  -0.1750000  -0.5250000   0.0750000), wk =   0.0030000
        k(  490) = (  -0.1250000  -0.4750000   0.1250000), wk =   0.0015000
        k(  491) = (  -0.1750000   0.1750000   0.1750000), wk =   0.0005000
        k(  492) = (  -0.2250000   0.2250000   0.1250000), wk =   0.0015000
        k(  493) = (  -0.2750000   0.2750000   0.0750000), wk =   0.0015000
        k(  494) = (  -0.3250000   0.3250000   0.0250000), wk =   0.0015000
        k(  495) = (  -0.3750000   0.3750000  -0.0250000), wk =   0.0015000
        k(  496) = (  -0.4250000   0.4250000  -0.0750000), wk =   0.0015000
        k(  497) = (  -0.4750000   0.4750000  -0.1250000), wk =   0.0015000
        k(  498) = (   0.4750000  -0.4750000   0.8250000), wk =   0.0015000
        k(  499) = (   0.4250000  -0.4250000   0.7750000), wk =   0.0015000
        k(  500) = (   0.3750000  -0.3750000   0.7250000), wk =   0.0015000
        k(  501) = (   0.3250000  -0.3250000   0.6750000), wk =   0.0015000
        k(  502) = (   0.2750000  -0.2750000   0.6250000), wk =   0.0015000
        k(  503) = (   0.2250000  -0.2250000   0.5750000), wk =   0.0015000
        k(  504) = (   0.1750000  -0.1750000   0.5250000), wk =   0.0015000
        k(  505) = (  -0.1750000   0.2750000   0.1750000), wk =   0.0015000
        k(  506) = (  -0.2250000   0.3250000   0.1250000), wk =   0.0030000
        k(  507) = (  -0.2750000   0.3750000   0.0750000), wk =   0.0030000
        k(  508) = (  -0.3250000   0.4250000   0.0250000), wk =   0.0030000
        k(  509) = (  -0.3750000   0.4750000  -0.0250000), wk =   0.0030000
        k(  510) = (  -0.4250000   0.5250000  -0.0750000), wk =   0.0030000
        k(  511) = (   0.5250000  -0.4250000   0.8750000), wk =   0.0030000
        k(  512) = (   0.4750000  -0.3750000   0.8250000), wk =   0.0030000
        k(  513) = (   0.4250000  -0.3250000   0.7750000), wk =   0.0030000
        k(  514) = (   0.3750000  -0.2750000   0.7250000), wk =   0.0030000
        k(  515) = (   0.3250000  -0.2250000   0.6750000), wk =   0.0030000
        k(  516) = (   0.2750000  -0.1750000   0.6250000), wk =   0.0030000
        k(  517) = (   0.2250000  -0.1250000   0.5750000), wk =   0.0030000
        k(  518) = (  -0.1750000   0.3750000   0.1750000), wk =   0.0015000
        k(  519) = (  -0.2250000   0.4250000   0.1250000), wk =   0.0030000
        k(  520) = (  -0.2750000   0.4750000   0.0750000), wk =   0.0030000
        k(  521) = (  -0.3250000   0.5250000   0.0250000), wk =   0.0030000
        k(  522) = (  -0.3750000   0.5750000  -0.0250000), wk =   0.0030000
        k(  523) = (   0.5750000  -0.3750000   0.9250000), wk =   0.0030000
        k(  524) = (   0.5250000  -0.3250000   0.8750000), wk =   0.0030000
        k(  525) = (   0.4750000  -0.2750000   0.8250000), wk =   0.0030000
        k(  526) = (   0.4250000  -0.2250000   0.7750000), wk =   0.0030000
        k(  527) = (   0.3750000  -0.1750000   0.7250000), wk =   0.0030000
        k(  528) = (   0.3250000  -0.1250000   0.6750000), wk =   0.0030000
        k(  529) = (   0.2750000  -0.0750000   0.6250000), wk =   0.0030000
        k(  530) = (  -0.1750000   0.4750000   0.1750000), wk =   0.0015000
        k(  531) = (  -0.2250000   0.5250000   0.1250000), wk =   0.0030000
        k(  532) = (  -0.2750000   0.5750000   0.0750000), wk =   0.0030000
        k(  533) = (  -0.3250000   0.6250000   0.0250000), wk =   0.0030000
        k(  534) = (   0.6250000  -0.3250000   0.9750000), wk =   0.0030000
        k(  535) = (   0.5750000  -0.2750000   0.9250000), wk =   0.0030000
        k(  536) = (   0.5250000  -0.2250000   0.8750000), wk =   0.0030000
        k(  537) = (   0.4750000  -0.1750000   0.8250000), wk =   0.0030000
        k(  538) = (   0.4250000  -0.1250000   0.7750000), wk =   0.0030000
        k(  539) = (   0.3750000  -0.0750000   0.7250000), wk =   0.0030000
        k(  540) = (   0.3250000  -0.0250000   0.6750000), wk =   0.0030000
        k(  541) = (  -0.1750000   0.5750000   0.1750000), wk =   0.0015000
        k(  542) = (  -0.2250000   0.6250000   0.1250000), wk =   0.0030000
        k(  543) = (  -0.2750000   0.6750000   0.0750000), wk =   0.0030000
        k(  544) = (   0.6750000  -0.2750000   1.0250000), wk =   0.0030000
        k(  545) = (   0.6250000  -0.2250000   0.9750000), wk =   0.0030000
        k(  546) = (   0.5750000  -0.1750000   0.9250000), wk =   0.0030000
        k(  547) = (   0.5250000  -0.1250000   0.8750000), wk =   0.0030000
        k(  548) = (   0.4750000  -0.0750000   0.8250000), wk =   0.0030000
        k(  549) = (   0.4250000  -0.0250000   0.7750000), wk =   0.0030000
        k(  550) = (   0.3750000   0.0250000   0.7250000), wk =   0.0030000
        k(  551) = (  -0.1750000   0.6750000   0.1750000), wk =   0.0015000
        k(  552) = (  -0.2250000   0.7250000   0.1250000), wk =   0.0030000
        k(  553) = (   0.7250000  -0.2250000   1.0750000), wk =   0.0030000
        k(  554) = (   0.6750000  -0.1750000   1.0250000), wk =   0.0030000
        k(  555) = (   0.6250000  -0.1250000   0.9750000), wk =   0.0030000
        k(  556) = (   0.5750000  -0.0750000   0.9250000), wk =   0.0030000
        k(  557) = (   0.5250000  -0.0250000   0.8750000), wk =   0.0030000
        k(  558) = (   0.4750000   0.0250000   0.8250000), wk =   0.0030000
        k(  559) = (   0.4250000   0.0750000   0.7750000), wk =   0.0030000
        k(  560) = (  -0.1750000   0.7750000   0.1750000), wk =   0.0015000
        k(  561) = (   0.7750000  -0.1750000   1.1250000), wk =   0.0030000
        k(  562) = (   0.7250000  -0.1250000   1.0750000), wk =   0.0030000
        k(  563) = (   0.6750000  -0.0750000   1.0250000), wk =   0.0030000
        k(  564) = (   0.6250000  -0.0250000   0.9750000), wk =   0.0030000
        k(  565) = (   0.5750000   0.0250000   0.9250000), wk =   0.0030000
        k(  566) = (   0.5250000   0.0750000   0.8750000), wk =   0.0030000
        k(  567) = (   0.4750000   0.1250000   0.8250000), wk =   0.0030000
        k(  568) = (  -0.1750000  -1.1250000   0.1750000), wk =   0.0015000
        k(  569) = (  -0.2250000  -1.0750000   0.1250000), wk =   0.0030000
        k(  570) = (  -0.2750000  -1.0250000   0.0750000), wk =   0.0030000
        k(  571) = (  -0.3250000  -0.9750000   0.0250000), wk =   0.0030000
        k(  572) = (  -0.3750000  -0.9250000  -0.0250000), wk =   0.0030000
        k(  573) = (  -0.4250000  -0.8750000  -0.0750000), wk =   0.0030000
        k(  574) = (  -0.1750000  -1.0250000   0.1750000), wk =   0.0015000
        k(  575) = (  -0.2250000  -0.9750000   0.1250000), wk =   0.0030000
        k(  576) = (  -0.2750000  -0.9250000   0.0750000), wk =   0.0030000
        k(  577) = (  -0.3250000  -0.8750000   0.0250000), wk =   0.0030000
        k(  578) = (  -0.3750000  -0.8250000  -0.0250000), wk =   0.0030000
        k(  579) = (  -0.1750000  -0.9250000   0.1750000), wk =   0.0015000
        k(  580) = (  -0.2250000  -0.8750000   0.1250000), wk =   0.0030000
        k(  581) = (  -0.2750000  -0.8250000   0.0750000), wk =   0.0030000
        k(  582) = (  -0.3250000  -0.7750000   0.0250000), wk =   0.0030000
        k(  583) = (  -0.1750000  -0.8250000   0.1750000), wk =   0.0015000
        k(  584) = (  -0.2250000  -0.7750000   0.1250000), wk =   0.0030000
        k(  585) = (  -0.2750000  -0.7250000   0.0750000), wk =   0.0030000
        k(  586) = (  -0.1750000  -0.7250000   0.1750000), wk =   0.0015000
        k(  587) = (  -0.2250000  -0.6750000   0.1250000), wk =   0.0030000
        k(  588) = (  -0.1750000  -0.6250000   0.1750000), wk =   0.0015000
        k(  589) = (  -0.2250000   0.2250000   0.2250000), wk =   0.0005000
        k(  590) = (  -0.2750000   0.2750000   0.1750000), wk =   0.0015000
        k(  591) = (  -0.3250000   0.3250000   0.1250000), wk =   0.0015000
        k(  592) = (  -0.3750000   0.3750000   0.0750000), wk =   0.0015000
        k(  593) = (  -0.4250000   0.4250000   0.0250000), wk =   0.0015000
        k(  594) = (  -0.4750000   0.4750000  -0.0250000), wk =   0.0015000
        k(  595) = (   0.4750000  -0.4750000   0.9250000), wk =   0.0015000
        k(  596) = (   0.4250000  -0.4250000   0.8750000), wk =   0.0015000
        k(  597) = (   0.3750000  -0.3750000   0.8250000), wk =   0.0015000
        k(  598) = (   0.3250000  -0.3250000   0.7750000), wk =   0.0015000
        k(  599) = (   0.2750000  -0.2750000   0.7250000), wk =   0.0015000
        k(  600) = (   0.2250000  -0.2250000   0.6750000), wk =   0.0015000
        k(  601) = (  -0.2250000   0.3250000   0.2250000), wk =   0.0015000
        k(  602) = (  -0.2750000   0.3750000   0.1750000), wk =   0.0030000
        k(  603) = (  -0.3250000   0.4250000   0.1250000), wk =   0.0030000
        k(  604) = (  -0.3750000   0.4750000   0.0750000), wk =   0.0030000
        k(  605) = (  -0.4250000   0.5250000   0.0250000), wk =   0.0030000
        k(  606) = (   0.5250000  -0.4250000   0.9750000), wk =   0.0030000
        k(  607) = (   0.4750000  -0.3750000   0.9250000), wk =   0.0030000
        k(  608) = (   0.4250000  -0.3250000   0.8750000), wk =   0.0030000
        k(  609) = (   0.3750000  -0.2750000   0.8250000), wk =   0.0030000
        k(  610) = (   0.3250000  -0.2250000   0.7750000), wk =   0.0030000
        k(  611) = (   0.2750000  -0.1750000   0.7250000), wk =   0.0030000
        k(  612) = (  -0.2250000   0.4250000   0.2250000), wk =   0.0015000
        k(  613) = (  -0.2750000   0.4750000   0.1750000), wk =   0.0030000
        k(  614) = (  -0.3250000   0.5250000   0.1250000), wk =   0.0030000
        k(  615) = (  -0.3750000   0.5750000   0.0750000), wk =   0.0030000
        k(  616) = (   0.5750000  -0.3750000   1.0250000), wk =   0.0030000
        k(  617) = (   0.5250000  -0.3250000   0.9750000), wk =   0.0030000
        k(  618) = (   0.4750000  -0.2750000   0.9250000), wk =   0.0030000
        k(  619) = (   0.4250000  -0.2250000   0.8750000), wk =   0.0030000
        k(  620) = (   0.3750000  -0.1750000   0.8250000), wk =   0.0030000
        k(  621) = (   0.3250000  -0.1250000   0.7750000), wk =   0.0030000
        k(  622) = (  -0.2250000   0.5250000   0.2250000), wk =   0.0015000
        k(  623) = (  -0.2750000   0.5750000   0.1750000), wk =   0.0030000
        k(  624) = (  -0.3250000   0.6250000   0.1250000), wk =   0.0030000
        k(  625) = (   0.6250000  -0.3250000   1.0750000), wk =   0.0030000
        k(  626) = (   0.5750000  -0.2750000   1.0250000), wk =   0.0030000
        k(  627) = (   0.5250000  -0.2250000   0.9750000), wk =   0.0030000
        k(  628) = (   0.4750000  -0.1750000   0.9250000), wk =   0.0030000
        k(  629) = (   0.4250000  -0.1250000   0.8750000), wk =   0.0030000
        k(  630) = (   0.3750000  -0.0750000   0.8250000), wk =   0.0030000
        k(  631) = (  -0.2250000   0.6250000   0.2250000), wk =   0.0015000
        k(  632) = (  -0.2750000   0.6750000   0.1750000), wk =   0.0030000
        k(  633) = (   0.6750000  -0.2750000   1.1250000), wk =   0.0030000
        k(  634) = (   0.6250000  -0.2250000   1.0750000), wk =   0.0030000
        k(  635) = (   0.5750000  -0.1750000   1.0250000), wk =   0.0030000
        k(  636) = (   0.5250000  -0.1250000   0.9750000), wk =   0.0030000
        k(  637) = (   0.4750000  -0.0750000   0.9250000), wk =   0.0030000
        k(  638) = (   0.4250000  -0.0250000   0.8750000), wk =   0.0030000
        k(  639) = (  -0.2250000   0.7250000   0.2250000), wk =   0.0015000
        k(  640) = (   0.7250000  -0.2250000   1.1750000), wk =   0.0030000
        k(  641) = (   0.6750000  -0.1750000   1.1250000), wk =   0.0030000
        k(  642) = (   0.6250000  -0.1250000   1.0750000), wk =   0.0030000
        k(  643) = (   0.5750000  -0.0750000   1.0250000), wk =   0.0030000
        k(  644) = (   0.5250000  -0.0250000   0.9750000), wk =   0.0030000
        k(  645) = (   0.4750000   0.0250000   0.9250000), wk =   0.0030000
        k(  646) = (  -0.2250000  -1.1750000   0.2250000), wk =   0.0015000
        k(  647) = (  -0.2750000  -1.1250000   0.1750000), wk =   0.0030000
        k(  648) = (  -0.3250000  -1.0750000   0.1250000), wk =   0.0030000
        k(  649) = (  -0.3750000  -1.0250000   0.0750000), wk =   0.0030000
        k(  650) = (  -0.4250000  -0.9750000   0.0250000), wk =   0.0030000
        k(  651) = (  -0.2250000  -1.0750000   0.2250000), wk =   0.0015000
        k(  652) = (  -0.2750000  -1.0250000   0.1750000), wk =   0.0030000
        k(  653) = (  -0.3250000  -0.9750000   0.1250000), wk =   0.0030000
        k(  654) = (  -0.3750000  -0.9250000   0.0750000), wk =   0.0030000
        k(  655) = (  -0.2250000  -0.9750000   0.2250000), wk =   0.0015000
        k(  656) = (  -0.2750000  -0.9250000   0.1750000), wk =   0.0030000
        k(  657) = (  -0.3250000  -0.8750000   0.1250000), wk =   0.0030000
        k(  658) = (  -0.2250000  -0.8750000   0.2250000), wk =   0.0015000
        k(  659) = (  -0.2750000  -0.8250000   0.1750000), wk =   0.0030000
        k(  660) = (  -0.2250000  -0.7750000   0.2250000), wk =   0.0015000
        k(  661) = (  -0.2750000   0.2750000   0.2750000), wk =   0.0005000
        k(  662) = (  -0.3250000   0.3250000   0.2250000), wk =   0.0015000
        k(  663) = (  -0.3750000   0.3750000   0.1750000), wk =   0.0015000
        k(  664) = (  -0.4250000   0.4250000   0.1250000), wk =   0.0015000
        k(  665) = (  -0.4750000   0.4750000   0.0750000), wk =   0.0015000
        k(  666) = (   0.4750000  -0.4750000   1.0250000), wk =   0.0015000
        k(  667) = (   0.4250000  -0.4250000   0.9750000), wk =   0.0015000
        k(  668) = (   0.3750000  -0.3750000   0.9250000), wk =   0.0015000
        k(  669) = (   0.3250000  -0.3250000   0.8750000), wk =   0.0015000
        k(  670) = (   0.2750000  -0.2750000   0.8250000), wk =   0.0015000
        k(  671) = (  -0.2750000   0.3750000   0.2750000), wk =   0.0015000
        k(  672) = (  -0.3250000   0.4250000   0.2250000), wk =   0.0030000
        k(  673) = (  -0.3750000   0.4750000   0.1750000), wk =   0.0030000
        k(  674) = (  -0.4250000   0.5250000   0.1250000), wk =   0.0030000
        k(  675) = (   0.5250000  -0.4250000   1.0750000), wk =   0.0030000
        k(  676) = (   0.4750000  -0.3750000   1.0250000), wk =   0.0030000
        k(  677) = (   0.4250000  -0.3250000   0.9750000), wk =   0.0030000
        k(  678) = (   0.3750000  -0.2750000   0.9250000), wk =   0.0030000
        k(  679) = (   0.3250000  -0.2250000   0.8750000), wk =   0.0030000
        k(  680) = (  -0.2750000   0.4750000   0.2750000), wk =   0.0015000
        k(  681) = (  -0.3250000   0.5250000   0.2250000), wk =   0.0030000
        k(  682) = (  -0.3750000   0.5750000   0.1750000), wk =   0.0030000
        k(  683) = (   0.5750000  -0.3750000   1.1250000), wk =   0.0030000
        k(  684) = (   0.5250000  -0.3250000   1.0750000), wk =   0.0030000
        k(  685) = (   0.4750000  -0.2750000   1.0250000), wk =   0.0030000
        k(  686) = (   0.4250000  -0.2250000   0.9750000), wk =   0.0030000
        k(  687) = (   0.3750000  -0.1750000   0.9250000), wk =   0.0030000
        k(  688) = (  -0.2750000   0.5750000   0.2750000), wk =   0.0015000
        k(  689) = (  -0.3250000   0.6250000   0.2250000), wk =   0.0030000
        k(  690) = (   0.6250000  -0.3250000   1.1750000), wk =   0.0030000
        k(  691) = (   0.5750000  -0.2750000   1.1250000), wk =   0.0030000
        k(  692) = (   0.5250000  -0.2250000   1.0750000), wk =   0.0030000
        k(  693) = (   0.4750000  -0.1750000   1.0250000), wk =   0.0030000
        k(  694) = (   0.4250000  -0.1250000   0.9750000), wk =   0.0030000
        k(  695) = (  -0.2750000   0.6750000   0.2750000), wk =   0.0015000
        k(  696) = (   0.6750000  -0.2750000   1.2250000), wk =   0.0030000
        k(  697) = (   0.6250000  -0.2250000   1.1750000), wk =   0.0030000
        k(  698) = (   0.5750000  -0.1750000   1.1250000), wk =   0.0030000
        k(  699) = (   0.5250000  -0.1250000   1.0750000), wk =   0.0030000
        k(  700) = (   0.4750000  -0.0750000   1.0250000), wk =   0.0030000
        k(  701) = (  -0.2750000  -1.2250000   0.2750000), wk =   0.0015000
        k(  702) = (  -0.3250000  -1.1750000   0.2250000), wk =   0.0030000
        k(  703) = (  -0.3750000  -1.1250000   0.1750000), wk =   0.0030000
        k(  704) = (  -0.4250000  -1.0750000   0.1250000), wk =   0.0030000
        k(  705) = (  -0.2750000  -1.1250000   0.2750000), wk =   0.0015000
        k(  706) = (  -0.3250000  -1.0750000   0.2250000), wk =   0.0030000
        k(  707) = (  -0.3750000  -1.0250000   0.1750000), wk =   0.0030000
        k(  708) = (  -0.2750000  -1.0250000   0.2750000), wk =   0.0015000
        k(  709) = (  -0.3250000  -0.9750000   0.2250000), wk =   0.0030000
        k(  710) = (  -0.2750000  -0.9250000   0.2750000), wk =   0.0015000
        k(  711) = (  -0.3250000   0.3250000   0.3250000), wk =   0.0005000
        k(  712) = (  -0.3750000   0.3750000   0.2750000), wk =   0.0015000
        k(  713) = (  -0.4250000   0.4250000   0.2250000), wk =   0.0015000
        k(  714) = (  -0.4750000   0.4750000   0.1750000), wk =   0.0015000
        k(  715) = (   0.4750000  -0.4750000   1.1250000), wk =   0.0015000
        k(  716) = (   0.4250000  -0.4250000   1.0750000), wk =   0.0015000
        k(  717) = (   0.3750000  -0.3750000   1.0250000), wk =   0.0015000
        k(  718) = (   0.3250000  -0.3250000   0.9750000), wk =   0.0015000
        k(  719) = (  -0.3250000   0.4250000   0.3250000), wk =   0.0015000
        k(  720) = (  -0.3750000   0.4750000   0.2750000), wk =   0.0030000
        k(  721) = (  -0.4250000   0.5250000   0.2250000), wk =   0.0030000
        k(  722) = (   0.5250000  -0.4250000   1.1750000), wk =   0.0030000
        k(  723) = (   0.4750000  -0.3750000   1.1250000), wk =   0.0030000
        k(  724) = (   0.4250000  -0.3250000   1.0750000), wk =   0.0030000
        k(  725) = (   0.3750000  -0.2750000   1.0250000), wk =   0.0030000
        k(  726) = (  -0.3250000   0.5250000   0.3250000), wk =   0.0015000
        k(  727) = (  -0.3750000   0.5750000   0.2750000), wk =   0.0030000
        k(  728) = (   0.5750000  -0.3750000   1.2250000), wk =   0.0030000
        k(  729) = (   0.5250000  -0.3250000   1.1750000), wk =   0.0030000
        k(  730) = (   0.4750000  -0.2750000   1.1250000), wk =   0.0030000
        k(  731) = (   0.4250000  -0.2250000   1.0750000), wk =   0.0030000
        k(  732) = (  -0.3250000   0.6250000   0.3250000), wk =   0.0015000
        k(  733) = (   0.6250000  -0.3250000   1.2750000), wk =   0.0030000
        k(  734) = (   0.5750000  -0.2750000   1.2250000), wk =   0.0030000
        k(  735) = (   0.5250000  -0.2250000   1.1750000), wk =   0.0030000
        k(  736) = (   0.4750000  -0.1750000   1.1250000), wk =   0.0030000
        k(  737) = (  -0.3250000  -1.2750000   0.3250000), wk =   0.0015000
        k(  738) = (  -0.3750000  -1.2250000   0.2750000), wk =   0.0030000
        k(  739) = (  -0.4250000  -1.1750000   0.2250000), wk =   0.0030000
        k(  740) = (  -0.3250000  -1.1750000   0.3250000), wk =   0.0015000
        k(  741) = (  -0.3750000  -1.1250000   0.2750000), wk =   0.0030000
        k(  742) = (  -0.3250000  -1.0750000   0.3250000), wk =   0.0015000
        k(  743) = (  -0.3750000   0.3750000   0.3750000), wk =   0.0005000
        k(  744) = (  -0.4250000   0.4250000   0.3250000), wk =   0.0015000
        k(  745) = (  -0.4750000   0.4750000   0.2750000), wk =   0.0015000
        k(  746) = (   0.4750000  -0.4750000   1.2250000), wk =   0.0015000
        k(  747) = (   0.4250000  -0.4250000   1.1750000), wk =   0.0015000
        k(  748) = (   0.3750000  -0.3750000   1.1250000), wk =   0.0015000
        k(  749) = (  -0.3750000   0.4750000   0.3750000), wk =   0.0015000
        k(  750) = (  -0.4250000   0.5250000   0.3250000), wk =   0.0030000
        k(  751) = (   0.5250000  -0.4250000   1.2750000), wk =   0.0030000
        k(  752) = (   0.4750000  -0.3750000   1.2250000), wk =   0.0030000
        k(  753) = (   0.4250000  -0.3250000   1.1750000), wk =   0.0030000
        k(  754) = (  -0.3750000   0.5750000   0.3750000), wk =   0.0015000
        k(  755) = (   0.5750000  -0.3750000   1.3250000), wk =   0.0030000
        k(  756) = (   0.5250000  -0.3250000   1.2750000), wk =   0.0030000
        k(  757) = (   0.4750000  -0.2750000   1.2250000), wk =   0.0030000
        k(  758) = (  -0.3750000  -1.3250000   0.3750000), wk =   0.0015000
        k(  759) = (  -0.4250000  -1.2750000   0.3250000), wk =   0.0030000
        k(  760) = (  -0.3750000  -1.2250000   0.3750000), wk =   0.0015000
        k(  761) = (  -0.4250000   0.4250000   0.4250000), wk =   0.0005000
        k(  762) = (  -0.4750000   0.4750000   0.3750000), wk =   0.0015000
        k(  763) = (   0.4750000  -0.4750000   1.3250000), wk =   0.0015000
        k(  764) = (   0.4250000  -0.4250000   1.2750000), wk =   0.0015000
        k(  765) = (  -0.4250000   0.5250000   0.4250000), wk =   0.0015000
        k(  766) = (   0.5250000  -0.4250000   1.3750000), wk =   0.0030000
        k(  767) = (   0.4750000  -0.3750000   1.3250000), wk =   0.0030000
        k(  768) = (  -0.4250000  -1.3750000   0.4250000), wk =   0.0015000
        k(  769) = (  -0.4750000   0.4750000   0.4750000), wk =   0.0005000
        k(  770) = (   0.4750000  -0.4750000   1.4250000), wk =   0.0015000

                       cryst. coord.
        k(    1) = (   0.0250000   0.0250000   0.0250000), wk =   0.0005000
        k(    2) = (   0.0250000   0.0250000   0.0750000), wk =   0.0015000
        k(    3) = (   0.0250000   0.0250000   0.1250000), wk =   0.0015000
        k(    4) = (   0.0250000   0.0250000   0.1750000), wk =   0.0015000
        k(    5) = (   0.0250000   0.0250000   0.2250000), wk =   0.0015000
        k(    6) = (   0.0250000   0.0250000   0.2750000), wk =   0.0015000
        k(    7) = (   0.0250000   0.0250000   0.3250000), wk =   0.0015000
        k(    8) = (   0.0250000   0.0250000   0.3750000), wk =   0.0015000
        k(    9) = (   0.0250000   0.0250000   0.4250000), wk =   0.0015000
        k(   10) = (   0.0250000   0.0250000   0.4750000), wk =   0.0015000
        k(   11) = (   0.0250000   0.0250000  -0.4750000), wk =   0.0015000
        k(   12) = (   0.0250000   0.0250000  -0.4250000), wk =   0.0015000
        k(   13) = (   0.0250000   0.0250000  -0.3750000), wk =   0.0015000
        k(   14) = (   0.0250000   0.0250000  -0.3250000), wk =   0.0015000
        k(   15) = (   0.0250000   0.0250000  -0.2750000), wk =   0.0015000
        k(   16) = (   0.0250000   0.0250000  -0.2250000), wk =   0.0015000
        k(   17) = (   0.0250000   0.0250000  -0.1750000), wk =   0.0015000
        k(   18) = (   0.0250000   0.0250000  -0.1250000), wk =   0.0015000
        k(   19) = (   0.0250000   0.0250000  -0.0750000), wk =   0.0015000
        k(   20) = (   0.0250000   0.0250000  -0.0250000), wk =   0.0015000
        k(   21) = (   0.0250000   0.0750000   0.0750000), wk =   0.0015000
        k(   22) = (   0.0250000   0.0750000   0.1250000), wk =   0.0030000
        k(   23) = (   0.0250000   0.0750000   0.1750000), wk =   0.0030000
        k(   24) = (   0.0250000   0.0750000   0.2250000), wk =   0.0030000
        k(   25) = (   0.0250000   0.0750000   0.2750000), wk =   0.0030000
        k(   26) = (   0.0250000   0.0750000   0.3250000), wk =   0.0030000
        k(   27) = (   0.0250000   0.0750000   0.3750000), wk =   0.0030000
        k(   28) = (   0.0250000   0.0750000   0.4250000), wk =   0.0030000
        k(   29) = (   0.0250000   0.0750000   0.4750000), wk =   0.0030000
        k(   30) = (   0.0250000   0.0750000  -0.4750000), wk =   0.0030000
        k(   31) = (   0.0250000   0.0750000  -0.4250000), wk =   0.0030000
        k(   32) = (   0.0250000   0.0750000  -0.3750000), wk =   0.0030000
        k(   33) = (   0.0250000   0.0750000  -0.3250000), wk =   0.0030000
        k(   34) = (   0.0250000   0.0750000  -0.2750000), wk =   0.0030000
        k(   35) = (   0.0250000   0.0750000  -0.2250000), wk =   0.0030000
        k(   36) = (   0.0250000   0.0750000  -0.1750000), wk =   0.0030000
        k(   37) = (   0.0250000   0.0750000  -0.1250000), wk =   0.0030000
        k(   38) = (   0.0250000   0.0750000  -0.0750000), wk =   0.0030000
        k(   39) = (   0.0250000   0.0750000  -0.0250000), wk =   0.0030000
        k(   40) = (   0.0250000   0.1250000   0.1250000), wk =   0.0015000
        k(   41) = (   0.0250000   0.1250000   0.1750000), wk =   0.0030000
        k(   42) = (   0.0250000   0.1250000   0.2250000), wk =   0.0030000
        k(   43) = (   0.0250000   0.1250000   0.2750000), wk =   0.0030000
        k(   44) = (   0.0250000   0.1250000   0.3250000), wk =   0.0030000
        k(   45) = (   0.0250000   0.1250000   0.3750000), wk =   0.0030000
        k(   46) = (   0.0250000   0.1250000   0.4250000), wk =   0.0030000
        k(   47) = (   0.0250000   0.1250000   0.4750000), wk =   0.0030000
        k(   48) = (   0.0250000   0.1250000  -0.4750000), wk =   0.0030000
        k(   49) = (   0.0250000   0.1250000  -0.4250000), wk =   0.0030000
        k(   50) = (   0.0250000   0.1250000  -0.3750000), wk =   0.0030000
        k(   51) = (   0.0250000   0.1250000  -0.3250000), wk =   0.0030000
        k(   52) = (   0.0250000   0.1250000  -0.2750000), wk =   0.0030000
        k(   53) = (   0.0250000   0.1250000  -0.2250000), wk =   0.0030000
        k(   54) = (   0.0250000   0.1250000  -0.1750000), wk =   0.0030000
        k(   55) = (   0.0250000   0.1250000  -0.1250000), wk =   0.0030000
        k(   56) = (   0.0250000   0.1250000  -0.0750000), wk =   0.0030000
        k(   57) = (   0.0250000   0.1250000  -0.0250000), wk =   0.0030000
        k(   58) = (   0.0250000   0.1750000   0.1750000), wk =   0.0015000
        k(   59) = (   0.0250000   0.1750000   0.2250000), wk =   0.0030000
        k(   60) = (   0.0250000   0.1750000   0.2750000), wk =   0.0030000
        k(   61) = (   0.0250000   0.1750000   0.3250000), wk =   0.0030000
        k(   62) = (   0.0250000   0.1750000   0.3750000), wk =   0.0030000
        k(   63) = (   0.0250000   0.1750000   0.4250000), wk =   0.0030000
        k(   64) = (   0.0250000   0.1750000   0.4750000), wk =   0.0030000
        k(   65) = (   0.0250000   0.1750000  -0.4750000), wk =   0.0030000
        k(   66) = (   0.0250000   0.1750000  -0.4250000), wk =   0.0030000
        k(   67) = (   0.0250000   0.1750000  -0.3750000), wk =   0.0030000
        k(   68) = (   0.0250000   0.1750000  -0.3250000), wk =   0.0030000
        k(   69) = (   0.0250000   0.1750000  -0.2750000), wk =   0.0030000
        k(   70) = (   0.0250000   0.1750000  -0.2250000), wk =   0.0030000
        k(   71) = (   0.0250000   0.1750000  -0.1750000), wk =   0.0030000
        k(   72) = (   0.0250000   0.1750000  -0.1250000), wk =   0.0030000
        k(   73) = (   0.0250000   0.1750000  -0.0750000), wk =   0.0030000
        k(   74) = (   0.0250000   0.1750000  -0.0250000), wk =   0.0030000
        k(   75) = (   0.0250000   0.2250000   0.2250000), wk =   0.0015000
        k(   76) = (   0.0250000   0.2250000   0.2750000), wk =   0.0030000
        k(   77) = (   0.0250000   0.2250000   0.3250000), wk =   0.0030000
        k(   78) = (   0.0250000   0.2250000   0.3750000), wk =   0.0030000
        k(   79) = (   0.0250000   0.2250000   0.4250000), wk =   0.0030000
        k(   80) = (   0.0250000   0.2250000   0.4750000), wk =   0.0030000
        k(   81) = (   0.0250000   0.2250000  -0.4750000), wk =   0.0030000
[...]

     occupation numbers 
     1.0000   1.0000   1.0000   1.0000   1.0000   1.0000   1.0000   1.0000
     1.0000   1.0000   1.0000   1.0000   1.0000   1.0000   0.0000   0.0000

          k =-0.3250-1.1750 0.3250 (  5372 PWs)   bands (ev):

   -26.9413 -26.9406 -26.9404 -26.9337 -26.9332  -6.5990  -6.4964  -6.4912
    -6.4595  -6.4497  -2.1807   1.9177   4.8529   6.4280  10.4988  13.3895

     occupation numbers 
     1.0000   1.0000   1.0000   1.0000   1.0000   1.0000   1.0000   1.0000
     1.0000   1.0000   1.0000   1.0000   1.0000   1.0000   0.0000   0.0000

          k =-0.3750-1.1250 0.2750 (  5369 PWs)   bands (ev):

   -26.9413 -26.9406 -26.9403 -26.9337 -26.9332  -6.6004  -6.4958  -6.4893
    -6.4601  -6.4501  -2.1116   1.9095   4.6761   6.2948  10.6350  13.5060

     occupation numbers 
     1.0000   1.0000   1.0000   1.0000   1.0000   1.0000   1.0000   1.0000
     1.0000   1.0000   1.0000   1.0000   1.0000   1.0000   0.0000   0.0000

          k =-0.3250-1.0750 0.3250 (  5375 PWs)   bands (ev):

   -26.9413 -26.9405 -26.9403 -26.9337 -26.9332  -6.6011  -6.4948  -6.4888
    -6.4605  -6.4503  -2.0807   1.9109   4.5420   6.3562  10.4467  13.7614

     occupation numbers 
     1.0000   1.0000   1.0000   1.0000   1.0000   1.0000   1.0000   1.0000
     1.0000   1.0000   1.0000   1.0000   1.0000   1.0000   0.0000   0.0000

          k =-0.3750 0.3750 0.3750 (  5369 PWs)   bands (ev):

   -26.9413 -26.9408 -26.9408 -26.9335 -26.9335  -6.5791  -6.5061  -6.5061
    -6.4514  -6.4514  -2.9372   2.5072   7.2553   7.2553   9.2272  12.8884

     occupation numbers 
     1.0000   1.0000   1.0000   1.0000   1.0000   1.0000   1.0000   1.0000
     1.0000   1.0000   1.0000   1.0000   1.0000   1.0000   0.0000   0.0000

          k =-0.4250 0.4250 0.3250 (  5367 PWs)   bands (ev):

   -26.9412 -26.9408 -26.9408 -26.9335 -26.9334  -6.5818  -6.5054  -6.5049
    -6.4520  -6.4507  -2.8400   2.3503   6.8981   7.2660   9.4530  12.8801

     occupation numbers 
     1.0000   1.0000   1.0000   1.0000   1.0000   1.0000   1.0000   1.0000
     1.0000   1.0000   1.0000   1.0000   1.0000   1.0000   0.0000   0.0000

          k =-0.4750 0.4750 0.2750 (  5369 PWs)   bands (ev):

   -26.9412 -26.9408 -26.9407 -26.9335 -26.9334  -6.5851  -6.5035  -6.5034
    -6.4524  -6.4510  -2.7119   2.2275   6.3035   7.1773   9.9442  12.8007

     occupation numbers 
     1.0000   1.0000   1.0000   1.0000   1.0000   1.0000   1.0000   1.0000
     1.0000   1.0000   1.0000   1.0000   1.0000   1.0000   0.0000   0.0000

          k = 0.4750-0.4750 1.2250 (  5367 PWs)   bands (ev):

   -26.9412 -26.9408 -26.9407 -26.9335 -26.9334  -6.5888  -6.5018  -6.5003
    -6.4525  -6.4524  -2.5601   2.1372   5.6924   7.0108  10.4045  12.7763

     occupation numbers 
     1.0000   1.0000   1.0000   1.0000   1.0000   1.0000   1.0000   1.0000
     1.0000   1.0000   1.0000   1.0000   1.0000   1.0000   0.0000   0.0000

          k = 0.4250-0.4250 1.1750 (  5367 PWs)   bands (ev):

   -26.9411 -26.9408 -26.9405 -26.9335 -26.9334  -6.5927  -6.4999  -6.4966
    -6.4546  -6.4522  -2.3948   2.0675   5.1582   6.7989  10.6272  13.0299

     occupation numbers 
     1.0000   1.0000   1.0000   1.0000   1.0000   1.0000   1.0000   1.0000
     1.0000   1.0000   1.0000   1.0000   1.0000   1.0000   0.0000   0.0000

          k = 0.3750-0.3750 1.1250 (  5370 PWs)   bands (ev):

   -26.9412 -26.9407 -26.9404 -26.9336 -26.9333  -6.5969  -6.4975  -6.4926
    -6.4574  -6.4515  -2.2292   1.9982   4.7599   6.5728  10.5949  13.5304

     occupation numbers 
     1.0000   1.0000   1.0000   1.0000   1.0000   1.0000   1.0000   1.0000
     1.0000   1.0000   1.0000   1.0000   1.0000   1.0000   0.0000   0.0000

          k =-0.3750 0.4750 0.3750 (  5367 PWs)   bands (ev):

   -26.9412 -26.9408 -26.9407 -26.9335 -26.9334  -6.5837  -6.5052  -6.5043
    -6.4521  -6.4501  -2.7688   2.2054   7.0069   7.0938   9.4399  12.7293

     occupation numbers 
     1.0000   1.0000   1.0000   1.0000   1.0000   1.0000   1.0000   1.0000
     1.0000   1.0000   1.0000   1.0000   1.0000   1.0000   0.0000   0.0000

          k =-0.4250 0.5250 0.3250 (  5375 PWs)   bands (ev):

   -26.9412 -26.9408 -26.9407 -26.9335 -26.9334  -6.5863  -6.5041  -6.5028
    -6.4526  -6.4501  -2.6676   2.0972   6.5307   7.0712   9.7996  12.6568

     occupation numbers 
     1.0000   1.0000   1.0000   1.0000   1.0000   1.0000   1.0000   1.0000
     1.0000   1.0000   1.0000   1.0000   1.0000   1.0000   0.0000   0.0000

          k = 0.5250-0.4250 1.2750 (  5369 PWs)   bands (ev):

   -26.9412 -26.9408 -26.9406 -26.9335 -26.9334  -6.5893  -6.5025  -6.5004
    -6.4533  -6.4507  -2.5424   2.0274   5.9482   6.9495  10.2830  12.5813

     occupation numbers 
     1.0000   1.0000   1.0000   1.0000   1.0000   1.0000   1.0000   1.0000
     1.0000   1.0000   1.0000   1.0000   1.0000   1.0000   0.0000   0.0000

          k = 0.4750-0.3750 1.2250 (  5368 PWs)   bands (ev):

   -26.9411 -26.9408 -26.9405 -26.9335 -26.9334  -6.5926  -6.5007  -6.4970
    -6.4546  -6.4512  -2.4008   1.9871   5.4010   6.7529  10.6536  12.6522

     occupation numbers 
     1.0000   1.0000   1.0000   1.0000   1.0000   1.0000   1.0000   1.0000
     1.0000   1.0000   1.0000   1.0000   1.0000   1.0000   0.0000   0.0000

          k = 0.4250-0.3250 1.1750 (  5367 PWs)   bands (ev):

   -26.9412 -26.9407 -26.9404 -26.9336 -26.9333  -6.5963  -6.4985  -6.4931
    -6.4571  -6.4510  -2.2530   1.9566   4.9587   6.5240  10.7444  13.0382

     occupation numbers 
     1.0000   1.0000   1.0000   1.0000   1.0000   1.0000   1.0000   1.0000
     1.0000   1.0000   1.0000   1.0000   1.0000   1.0000   0.0000   0.0000

          k =-0.3750 0.5750 0.3750 (  5370 PWs)   bands (ev):

   -26.9412 -26.9408 -26.9407 -26.9335 -26.9334  -6.5882  -6.5035  -6.5017
    -6.4532  -6.4495  -2.5955   2.0029   6.4365   6.9289   9.9320  12.5725

     occupation numbers 
     1.0000   1.0000   1.0000   1.0000   1.0000   1.0000   1.0000   1.0000
     1.0000   1.0000   1.0000   1.0000   1.0000   1.0000   0.0000   0.0000

          k = 0.5750-0.3750 1.3250 (  5374 PWs)   bands (ev):

   -26.9412 -26.9408 -26.9406 -26.9335 -26.9334  -6.5904  -6.5024  -6.4998
    -6.4540  -6.4498  -2.5003   1.9493   6.0175   6.8357  10.2740  12.5084

     occupation numbers 
     1.0000   1.0000   1.0000   1.0000   1.0000   1.0000   1.0000   1.0000
     1.0000   1.0000   1.0000   1.0000   1.0000   1.0000   0.0000   0.0000

          k = 0.5250-0.3250 1.2750 (  5370 PWs)   bands (ev):

   -26.9412 -26.9408 -26.9405 -26.9335 -26.9333  -6.5930  -6.5010  -6.4968
    -6.4551  -6.4504  -2.3877   1.9307   5.5425   6.6562  10.7147  12.4178

     occupation numbers 
     1.0000   1.0000   1.0000   1.0000   1.0000   1.0000   1.0000   1.0000
     1.0000   1.0000   1.0000   1.0000   1.0000   1.0000   0.0000   0.0000

          k = 0.4750-0.2750 1.2250 (  5366 PWs)   bands (ev):

   -26.9412 -26.9408 -26.9404 -26.9336 -26.9333  -6.5960  -6.4993  -6.4931
    -6.4570  -6.4506  -2.2649   1.9295   5.1240   6.4134  11.0481  12.4995

     occupation numbers 
     1.0000   1.0000   1.0000   1.0000   1.0000   1.0000   1.0000   1.0000
     1.0000   1.0000   1.0000   1.0000   1.0000   1.0000   0.0000   0.0000

          k =-0.3750-1.3250 0.3750 (  5371 PWs)   bands (ev):

   -26.9412 -26.9407 -26.9406 -26.9335 -26.9333  -6.5920  -6.5014  -6.4986
    -6.4547  -6.4497  -2.4373   1.9112   5.8017   6.7780  10.3607  12.6026

     occupation numbers 
     1.0000   1.0000   1.0000   1.0000   1.0000   1.0000   1.0000   1.0000
     1.0000   1.0000   1.0000   1.0000   1.0000   1.0000   0.0000   0.0000

          k =-0.4250-1.2750 0.3250 (  5369 PWs)   bands (ev):

   -26.9412 -26.9407 -26.9405 -26.9336 -26.9333  -6.5938  -6.5004  -6.4963
    -6.4556  -6.4502  -2.3573   1.9097   5.4570   6.6525  10.6194  12.6132

     occupation numbers 
     1.0000   1.0000   1.0000   1.0000   1.0000   1.0000   1.0000   1.0000
     1.0000   1.0000   1.0000   1.0000   1.0000   1.0000   0.0000   0.0000

          k =-0.3750-1.2250 0.3750 (  5371 PWs)   bands (ev):

   -26.9412 -26.9407 -26.9405 -26.9336 -26.9333  -6.5949  -6.4992  -6.4953
    -6.4562  -6.4505  -2.3116   1.9228   5.2148   6.6557  10.5616  12.9530

     occupation numbers 
     1.0000   1.0000   1.0000   1.0000   1.0000   1.0000   1.0000   1.0000
     1.0000   1.0000   1.0000   1.0000   1.0000   1.0000   0.0000   0.0000

          k =-0.4250 0.4250 0.4250 (  5378 PWs)   bands (ev):

   -26.9412 -26.9408 -26.9408 -26.9335 -26.9335  -6.5847  -6.5050  -6.5050
    -6.4507  -6.4507  -2.7252   2.0727   7.1809   7.1809   9.1507  12.8677

     occupation numbers 
     1.0000   1.0000   1.0000   1.0000   1.0000   1.0000   1.0000   1.0000
     1.0000   1.0000   1.0000   1.0000   1.0000   1.0000   0.0000   0.0000

          k =-0.4750 0.4750 0.3750 (  5375 PWs)   bands (ev):

   -26.9412 -26.9407 -26.9407 -26.9335 -26.9334  -6.5865  -6.5043  -6.5042
    -6.4510  -6.4504  -2.6525   1.9792   6.8640   7.1675   9.3938  12.8995

     occupation numbers 
     1.0000   1.0000   1.0000   1.0000   1.0000   1.0000   1.0000   1.0000
     1.0000   1.0000   1.0000   1.0000   1.0000   1.0000   0.0000   0.0000

          k = 0.4750-0.4750 1.3250 (  5371 PWs)   bands (ev):

   -26.9412 -26.9408 -26.9407 -26.9335 -26.9334  -6.5887  -6.5031  -6.5022
    -6.4513  -6.4511  -2.5554   1.9292   6.3004   7.0571   9.9048  12.7035

     occupation numbers 
     1.0000   1.0000   1.0000   1.0000   1.0000   1.0000   1.0000   1.0000
     1.0000   1.0000   1.0000   1.0000   1.0000   1.0000   0.0000   0.0000

          k = 0.4250-0.4250 1.2750 (  5363 PWs)   bands (ev):

   -26.9412 -26.9408 -26.9406 -26.9335 -26.9334  -6.5915  -6.5015  -6.4991
    -6.4534  -6.4510  -2.4394   1.9165   5.7183   6.8753  10.3668  12.6763

     occupation numbers 
     1.0000   1.0000   1.0000   1.0000   1.0000   1.0000   1.0000   1.0000
     1.0000   1.0000   1.0000   1.0000   1.0000   1.0000   0.0000   0.0000

          k =-0.4250 0.5250 0.4250 (  5372 PWs)   bands (ev):

   -26.9412 -26.9408 -26.9407 -26.9335 -26.9334  -6.5874  -6.5043  -6.5037
    -6.4511  -6.4500  -2.6105   1.9001   6.9199   7.0794   9.3870  12.7473

     occupation numbers 
     1.0000   1.0000   1.0000   1.0000   1.0000   1.0000   1.0000   1.0000
     1.0000   1.0000   1.0000   1.0000   1.0000   1.0000   0.0000   0.0000

          k = 0.5250-0.4250 1.3750 (  5372 PWs)   bands (ev):

   -26.9412 -26.9408 -26.9407 -26.9335 -26.9334  -6.5890  -6.5035  -6.5024
    -6.4517  -6.4502  -2.5447   1.8667   6.4988   7.0200   9.7632  12.6539

     occupation numbers 
     1.0000   1.0000   1.0000   1.0000   1.0000   1.0000   1.0000   1.0000
     1.0000   1.0000   1.0000   1.0000   1.0000   1.0000   0.0000   0.0000

          k = 0.4750-0.3750 1.3250 (  5372 PWs)   bands (ev):

   -26.9412 -26.9408 -26.9406 -26.9335 -26.9334  -6.5911  -6.5022  -6.4998
    -6.4531  -6.4504  -2.4588   1.8752   5.9619   6.8679  10.2615  12.5384

     occupation numbers 
     1.0000   1.0000   1.0000   1.0000   1.0000   1.0000   1.0000   1.0000
     1.0000   1.0000   1.0000   1.0000   1.0000   1.0000   0.0000   0.0000

          k =-0.4250-1.3750 0.4250 (  5373 PWs)   bands (ev):

   -26.9412 -26.9407 -26.9407 -26.9335 -26.9334  -6.5898  -6.5031  -6.5017
    -6.4521  -6.4501  -2.5118   1.8493   6.3458   6.9730   9.9004  12.6265

     occupation numbers 
     1.0000   1.0000   1.0000   1.0000   1.0000   1.0000   1.0000   1.0000
     1.0000   1.0000   1.0000   1.0000   1.0000   1.0000   0.0000   0.0000

          k =-0.4750 0.4750 0.4750 (  5384 PWs)   bands (ev):

   -26.9412 -26.9407 -26.9407 -26.9334 -26.9334  -6.5876  -6.5044  -6.5044
    -6.4502  -6.4502  -2.6005   1.8361   7.1432   7.1432   9.1116  12.8512

     occupation numbers 
     1.0000   1.0000   1.0000   1.0000   1.0000   1.0000   1.0000   1.0000
     1.0000   1.0000   1.0000   1.0000   1.0000   1.0000   0.0000   0.0000

          k = 0.4750-0.4750 1.4250 (  5383 PWs)   bands (ev):

   -26.9412 -26.9407 -26.9407 -26.9334 -26.9334  -6.5884  -6.5040  -6.5037
    -6.4505  -6.4503  -2.5670   1.8198   6.8716   7.1044   9.3714  12.7817

     occupation numbers 
     1.0000   1.0000   1.0000   1.0000   1.0000   1.0000   1.0000   1.0000
     1.0000   1.0000   1.0000   1.0000   1.0000   1.0000   0.0000   0.0000

     highest occupied, lowest unoccupied level (ev):     8.2061    8.6980

!    total energy              =    -365.13107613 Ry
     estimated scf accuracy    <       0.00000068 Ry

     The total energy is the sum of the following terms:
     one-electron contribution =    -196.54202333 Ry
     hartree contribution      =     116.41591112 Ry
     xc contribution           =     -89.40008934 Ry
     ewald contribution        =    -195.60487458 Ry

     convergence has been achieved in   7 iterations

     Forces acting on atoms (cartesian axes, Ry/au):

     atom    1 type  1   force =    -0.00000000    0.00000000   -0.00000000
     atom    2 type  2   force =     0.00000000   -0.00000000    0.00000000
     The non-local contrib.  to forces
     atom    1 type  1   force =    -0.00000000   -0.00000000    0.00000000
     atom    2 type  2   force =    -0.00000000    0.00000000   -0.00000000
     The ionic contribution  to forces
     atom    1 type  1   force =     0.00000000   -0.00000000   -0.00000000
     atom    2 type  2   force =     0.00000000    0.00000000   -0.00000000
     The local contribution  to forces
     atom    1 type  1   force =    -0.00000000   -0.00000000    0.00000000
     atom    2 type  2   force =    -0.00000000    0.00000000    0.00000000
     The core correction contribution to forces
     atom    1 type  1   force =    -0.00000000    0.00000000    0.00000000
     atom    2 type  2   force =     0.00000000    0.00000000    0.00000000
     The Hubbard contrib.    to forces
     atom    1 type  1   force =     0.00000000    0.00000000    0.00000000
     atom    2 type  2   force =     0.00000000    0.00000000    0.00000000
     The SCF correction term to forces
     atom    1 type  1   force =    -0.00000000   -0.00000000   -0.00000000
     atom    2 type  2   force =     0.00000000    0.00000000   -0.00000000

     Total force =     0.000000     Total SCF correction =     0.000000


     Computing stress (Cartesian axis) and pressure

          total   stress  (Ry/bohr**3)                   (kbar)     P=        2.56
   0.00001742  -0.00000000  -0.00000000            2.56       -0.00       -0.00
  -0.00000000   0.00001742  -0.00000000           -0.00        2.56       -0.00
  -0.00000000   0.00000000   0.00001742           -0.00        0.00        2.56

     kinetic stress (kbar)  85683.77      0.00      0.00
                                0.00  85683.77     -0.00
                                0.00     -0.00  85683.77

     local   stress (kbar)  -1180.45      0.00      0.00
                                0.00  -1180.45      0.00
                                0.00      0.00  -1180.45

     nonloc. stress (kbar) -62611.84      0.00      0.00
                                0.00 -62611.84      0.00
                               -0.00     -0.00 -62611.84

     hartree stress (kbar)  17955.92     -0.00      0.00
                               -0.00  17955.92      0.00
                                0.00      0.00  17955.92

     exc-cor stress (kbar)  13510.28     -0.00      0.00
                               -0.00  13510.28     -0.00
                                0.00     -0.00  13510.28

     corecor stress (kbar) -23185.14      0.00      0.00
                                0.00 -23185.14      0.00
                                0.00      0.00 -23185.14

     ewald   stress (kbar) -30169.98      0.00     -0.00
                                0.00 -30169.98      0.00
                               -0.00      0.00 -30169.98

     hubbard stress (kbar)      0.00      0.00      0.00
                                0.00      0.00      0.00
                                0.00      0.00      0.00

     DFT-D   stress (kbar)      0.00      0.00      0.00
                                0.00      0.00      0.00
                                0.00      0.00      0.00

     XDM     stress (kbar)      0.00      0.00      0.00
                                0.00      0.00      0.00
                                0.00      0.00      0.00

     dft-nl  stress (kbar)      0.00      0.00      0.00
                                0.00      0.00      0.00
                                0.00      0.00      0.00

     TS-vdW  stress (kbar)      0.00      0.00      0.00
                                0.00      0.00      0.00
                                0.00      0.00      0.00

     MDB     stress (kbar)      0.00      0.00      0.00
                                0.00      0.00      0.00
                                0.00      0.00      0.00

     3D-RISM stress (kbar)      0.00      0.00      0.00
                                0.00      0.00      0.00
                                0.00      0.00      0.00


     Writing all to output data dir /home/nico-sachs/source/q-e/tempdir/gaasPBE.save/ :
     XML data file, charge density, pseudopotentials, collected wavefunctions

     init_run     :     18.23s CPU     18.90s WALL (       1 calls)
     electrons    :    561.19s CPU    585.04s WALL (       1 calls)
     forces       :      6.08s CPU      6.12s WALL (       1 calls)
     stress       :     22.24s CPU     22.34s WALL (       1 calls)

     Called by init_run:
     wfcinit      :     17.40s CPU     18.05s WALL (       1 calls)
     wfcinit:atom :      0.24s CPU      0.24s WALL (     770 calls)
     wfcinit:wfcr :     15.73s CPU     16.37s WALL (     770 calls)
     potinit      :      0.17s CPU      0.18s WALL (       1 calls)
     hinit0       :      0.34s CPU      0.35s WALL (       1 calls)

     Called by electrons:
     c_bands      :    517.92s CPU    539.62s WALL (       8 calls)
     sum_band     :     42.98s CPU     45.07s WALL (       8 calls)
     v_of_rho     :      0.23s CPU      0.26s WALL (       8 calls)
     v_h          :      0.02s CPU      0.02s WALL (       8 calls)
     v_xc         :      0.27s CPU      0.31s WALL (      10 calls)
     mix_rho      :      0.03s CPU      0.03s WALL (       8 calls)

     Called by c_bands:
     init_us_2    :      9.04s CPU      9.29s WALL (   14630 calls)
     ccgdiagg     :    425.86s CPU    444.11s WALL (    6160 calls)
     wfcrot       :    102.44s CPU    106.35s WALL (    5390 calls)

     Called by sum_band:
     sum_band:wei :      0.00s CPU      0.00s WALL (       8 calls)
     sum_band:loo :     42.95s CPU     45.04s WALL (       8 calls)
     sum_band:buf :      0.65s CPU      0.68s WALL (    6160 calls)
     sum_band:ini :      4.23s CPU      4.34s WALL (    6160 calls)

     Called by *cgdiagg:
     h_psi        :    412.25s CPU    430.54s WALL (  302073 calls)

     Called by h_psi:
     h_psi:calbec :     66.69s CPU     69.49s WALL (  302073 calls)
     vloc_psi     :    295.50s CPU    309.27s WALL (  302073 calls)
                                        0.00s GPU  (  302073 calls)
     add_vuspsi   :     46.56s CPU     48.23s WALL (  302073 calls)
     hs_1psi      :    327.99s CPU    342.60s WALL (  296683 calls)
     s_1psi       :     53.28s CPU     55.07s WALL (  296683 calls)

     General routines
     calbec       :    138.64s CPU    143.42s WALL (  611846 calls)
     fft          :      0.38s CPU      0.39s WALL (     119 calls)
     ffts         :      0.13s CPU      0.13s WALL (      16 calls)
     fftw         :    293.01s CPU    306.97s WALL (  867486 calls)
     interpolate  :      0.13s CPU      0.13s WALL (       8 calls)

     Parallel routines

     PWSCF        :  10m 8.45s CPU  10m33.76s WALL


   This run was terminated on:   0:38:44   9Mar2026            

=------------------------------------------------------------------------------=
   JOB DONE.
=------------------------------------------------------------------------------=
