
     Program PWSCF v.7.5 starts on 26Jan2026 at 16:18:20 

     This program is part of the open-source Quantum ESPRESSO suite
     for quantum simulation of materials; please cite
         "P. Giannozzi et al., J. Phys.:Condens. Matter 21 395502 (2009);
         "P. Giannozzi et al., J. Phys.:Condens. Matter 29 465901 (2017);
         "P. Giannozzi et al., J. Chem. Phys. 152 154105 (2020);
          URL http://www.quantum-espresso.org", 
     in publications or presentations arising from this work. More details at
     http://www.quantum-espresso.org/quote

     Parallel version (MPI), running on     1 processors

     MPI processes distributed on     1 nodes
     25153 MiB available memory on the printing compute node when the environment starts

     Waiting for input...
     Reading input from standard input

     Current dimensions of program PWSCF are:
     Max number of different atomic species (ntypx) = 10
     Max number of k-points (npk) =  40000
     Max angular momentum in pseudopotentials (lmaxx) =  4
     file Ga.pbe-dn-kjpaw_psl.1.0.0.UPF: wavefunction(s)  4S renormalized
     file Al.pbe-n-kjpaw_psl.1.0.0.UPF: wavefunction(s)  3S 3P renormalized
     Message from routine set_cutoff:
     ecutrho < 4*ecutwfc, are you sure?
     Message from routine volume:
     axis vectors are left-handed
     Message from routine setup:
     using ibrav=0 with symmetry is DISCOURAGED, use correct ibrav instead

     Subspace diagonalization in iterative solution of the eigenvalue problem:
     a serial algorithm will be used


     G-vector sticks info
     --------------------
     sticks:   dense  smooth     PW     G-vecs:    dense   smooth      PW
     Sum         385     385    241                 5065     5065    2421

     Using Slab Decomposition



     bravais-lattice index     =            0
     lattice parameter (alat)  =      10.6829  a.u.
     unit-cell volume          =     304.7984 (a.u.)^3
     number of atoms/cell      =            2
     number of atomic types    =            2
     number of electrons       =        16.00
     number of Kohn-Sham states=           12
     kinetic-energy cutoff     =      50.0000  Ry
     charge density cutoff     =     100.0000  Ry
     scf convergence threshold =      1.0E-06
     mixing beta               =       0.7000
     number of iterations used =            8  plain     mixing
     Exchange-correlation= SLA  PW   PBX  PBC
                           (   1   4   3   4   0   0   0)

     celldm(1)=  10.682943  celldm(2)=   0.000000  celldm(3)=   0.000000
     celldm(4)=   0.000000  celldm(5)=   0.000000  celldm(6)=   0.000000

     crystal axes: (cart. coord. in units of alat)
               a(1) = (   0.500000   0.500000   0.000000 )  
               a(2) = (   0.500000   0.000000   0.500000 )  
               a(3) = (   0.000000   0.500000   0.500000 )  

     reciprocal axes: (cart. coord. in units 2 pi/alat)
               b(1) = (  1.000000  1.000000 -1.000000 )  
               b(2) = (  1.000000 -1.000000  1.000000 )  
               b(3) = ( -1.000000  1.000000  1.000000 )  


     PseudoPot. # 1 for Ga read from file:
     /home/nico-sachs/source/q-e/SSSP_1.3.0_PBE_efficiency/Ga.pbe-dn-kjpaw_psl.1.0.0.UPF
     MD5 check sum: a27b4342b1af7e5f338de752e9ed7044
     Pseudo is Projector augmented-wave + core cor, Zval = 13.0
     Generated using "atomic" code by A. Dal Corso  v.5.1
     Shape of augmentation charge: PSQ
     Using radial grid of 1205 points,  6 beta functions with: 
                l(1) =   0
                l(2) =   0
                l(3) =   1
                l(4) =   1
                l(5) =   2
                l(6) =   2
     Q(r) pseudized with 0 coefficients 


     PseudoPot. # 2 for Al read from file:
     /home/nico-sachs/source/q-e/SSSP_1.3.0_PBE_efficiency/Al.pbe-n-kjpaw_psl.1.0.0.UPF
     MD5 check sum: cfc449ca30b5f3223ec38ddd88ac046d
     Pseudo is Projector augmented-wave + core cor, Zval =  3.0
     Generated using "atomic" code by A. Dal Corso  v.5.1
     Shape of augmentation charge: PSQ
     Using radial grid of 1135 points,  6 beta functions with: 
                l(1) =   0
                l(2) =   0
                l(3) =   1
                l(4) =   1
                l(5) =   2
                l(6) =   2
     Q(r) pseudized with 0 coefficients 


     atomic species   valence    mass     pseudopotential
     Ga               13.00    69.72300     Ga( 1.00)
     As                3.00    74.92100     Al( 1.00)

     24 Sym. Ops. (no inversion) found



   Cartesian axes

     site n.     atom                  positions (alat units)
         1        As     tau(   1) = (   0.2500000   0.2500000   0.2500000  )
         2        Ga     tau(   2) = (   0.0000000   0.0000000   0.0000000  )

     number of k points=    60  Marzari-Vanderbilt smearing, width (Ry)=  0.0500
                       cart. coord. in units 2pi/alat
        k(    1) = (   0.0625000   0.0625000   0.0625000), wk =   0.0078125
        k(    2) = (   0.0625000   0.0625000   0.1875000), wk =   0.0234375
        k(    3) = (   0.0625000   0.0625000   0.3125000), wk =   0.0234375
        k(    4) = (   0.0625000   0.0625000   0.4375000), wk =   0.0234375
        k(    5) = (   0.0625000   0.0625000   0.5625000), wk =   0.0234375
        k(    6) = (   0.0625000   0.0625000   0.6875000), wk =   0.0234375
        k(    7) = (   0.0625000   0.0625000   0.8125000), wk =   0.0234375
        k(    8) = (   0.0625000   0.0625000   0.9375000), wk =   0.0234375
        k(    9) = (   0.0625000   0.1875000   0.1875000), wk =   0.0234375
        k(   10) = (   0.0625000   0.1875000   0.3125000), wk =   0.0468750
        k(   11) = (   0.0625000   0.1875000   0.4375000), wk =   0.0468750
        k(   12) = (   0.0625000   0.1875000   0.5625000), wk =   0.0468750
        k(   13) = (   0.0625000   0.1875000   0.6875000), wk =   0.0468750
        k(   14) = (   0.0625000   0.1875000   0.8125000), wk =   0.0468750
        k(   15) = (   0.0625000   0.1875000   0.9375000), wk =   0.0468750
        k(   16) = (   0.0625000   0.3125000   0.3125000), wk =   0.0234375
        k(   17) = (   0.0625000   0.3125000   0.4375000), wk =   0.0468750
        k(   18) = (   0.0625000   0.3125000   0.5625000), wk =   0.0468750
        k(   19) = (   0.0625000   0.3125000   0.6875000), wk =   0.0468750
        k(   20) = (   0.0625000   0.3125000   0.8125000), wk =   0.0468750
        k(   21) = (   0.0625000   0.3125000   0.9375000), wk =   0.0468750
        k(   22) = (   0.0625000   0.4375000   0.4375000), wk =   0.0234375
        k(   23) = (   0.0625000   0.4375000   0.5625000), wk =   0.0468750
        k(   24) = (   0.0625000   0.4375000   0.6875000), wk =   0.0468750
        k(   25) = (   0.0625000   0.4375000   0.8125000), wk =   0.0468750
        k(   26) = (   0.0625000   0.4375000   0.9375000), wk =   0.0468750
        k(   27) = (   0.0625000   0.5625000   0.5625000), wk =   0.0234375
        k(   28) = (   0.0625000   0.5625000   0.6875000), wk =   0.0468750
        k(   29) = (   0.0625000   0.5625000   0.8125000), wk =   0.0468750
        k(   30) = (   0.0625000   0.6875000   0.6875000), wk =   0.0234375
        k(   31) = (   0.0625000   0.6875000   0.8125000), wk =   0.0468750
        k(   32) = (   0.0625000   0.8125000   0.8125000), wk =   0.0234375
        k(   33) = (   0.1875000   0.1875000   0.1875000), wk =   0.0078125
        k(   34) = (   0.1875000   0.1875000   0.3125000), wk =   0.0234375
        k(   35) = (   0.1875000   0.1875000   0.4375000), wk =   0.0234375
        k(   36) = (   0.1875000   0.1875000   0.5625000), wk =   0.0234375
        k(   37) = (   0.1875000   0.1875000   0.6875000), wk =   0.0234375
        k(   38) = (   0.1875000   0.1875000   0.8125000), wk =   0.0234375
        k(   39) = (   0.1875000   0.3125000   0.3125000), wk =   0.0234375
        k(   40) = (   0.1875000   0.3125000   0.4375000), wk =   0.0468750
        k(   41) = (   0.1875000   0.3125000   0.5625000), wk =   0.0468750
        k(   42) = (   0.1875000   0.3125000   0.6875000), wk =   0.0468750
        k(   43) = (   0.1875000   0.3125000   0.8125000), wk =   0.0468750
        k(   44) = (   0.1875000   0.4375000   0.4375000), wk =   0.0234375
        k(   45) = (   0.1875000   0.4375000   0.5625000), wk =   0.0468750
        k(   46) = (   0.1875000   0.4375000   0.6875000), wk =   0.0468750
        k(   47) = (   0.1875000   0.4375000   0.8125000), wk =   0.0468750
        k(   48) = (   0.1875000   0.5625000   0.5625000), wk =   0.0234375
        k(   49) = (   0.1875000   0.5625000   0.6875000), wk =   0.0468750
        k(   50) = (   0.1875000   0.6875000   0.6875000), wk =   0.0234375
        k(   51) = (   0.3125000   0.3125000   0.3125000), wk =   0.0078125
        k(   52) = (   0.3125000   0.3125000   0.4375000), wk =   0.0234375
        k(   53) = (   0.3125000   0.3125000   0.5625000), wk =   0.0234375
        k(   54) = (   0.3125000   0.3125000   0.6875000), wk =   0.0234375
        k(   55) = (   0.3125000   0.4375000   0.4375000), wk =   0.0234375
        k(   56) = (   0.3125000   0.4375000   0.5625000), wk =   0.0468750
        k(   57) = (   0.3125000   0.4375000   0.6875000), wk =   0.0468750
        k(   58) = (   0.3125000   0.5625000   0.5625000), wk =   0.0234375
        k(   59) = (   0.4375000   0.4375000   0.4375000), wk =   0.0078125
        k(   60) = (   0.4375000   0.4375000   0.5625000), wk =   0.0234375

     Dense  grid:     5065 G-vectors     FFT dimensions: (  25,  25,  25)

     Estimated max dynamical RAM per process >      41.80 MB

     Check: negative core charge=   -0.000011

     Initial potential from superposition of free atoms

     starting charge      15.9948, renormalised to      16.0000
     Starting wfcs are   13 randomized atomic wfcs
     Checking if some PAW data can be deallocated... 

     total cpu time spent up to now is        1.5 secs

     Self-consistent Calculation

     iteration #  1     ecut=    50.00 Ry     beta= 0.70
     CG style diagonalization
     ethr =  1.00E-02,  avg # of iterations =  3.0

     Threshold (ethr) on eigenvalues was too large:
     Diagonalizing with lowered threshold

     CG style diagonalization
     c_bands:  2 eigenvalues not converged
     c_bands:  1 eigenvalues not converged
     c_bands:  1 eigenvalues not converged
     c_bands:  1 eigenvalues not converged
     ethr =  4.69E-05,  avg # of iterations =  7.9

     total cpu time spent up to now is        9.3 secs

     total energy              =    -317.34853189 Ry
     estimated scf accuracy    <       0.00997300 Ry

     iteration #  2     ecut=    50.00 Ry     beta= 0.70
     CG style diagonalization
     ethr =  6.23E-05,  avg # of iterations =  3.0

     total cpu time spent up to now is       11.7 secs

     total energy              =    -317.34891727 Ry
     estimated scf accuracy    <       0.00083884 Ry

     iteration #  3     ecut=    50.00 Ry     beta= 0.70
     CG style diagonalization
     c_bands:  1 eigenvalues not converged
     c_bands:  1 eigenvalues not converged
     c_bands:  1 eigenvalues not converged
     c_bands:  1 eigenvalues not converged
     c_bands:  1 eigenvalues not converged
     ethr =  5.24E-06,  avg # of iterations =  4.9

     total cpu time spent up to now is       15.3 secs

     total energy              =    -317.34917830 Ry
     estimated scf accuracy    <       0.00000830 Ry

     iteration #  4     ecut=    50.00 Ry     beta= 0.70
     CG style diagonalization
     c_bands:  1 eigenvalues not converged
     c_bands:  1 eigenvalues not converged
     c_bands:  1 eigenvalues not converged
     c_bands:  1 eigenvalues not converged
     c_bands:  1 eigenvalues not converged
     c_bands:  1 eigenvalues not converged
     c_bands:  1 eigenvalues not converged
     c_bands:  1 eigenvalues not converged
     c_bands:  1 eigenvalues not converged
     c_bands:  1 eigenvalues not converged
     c_bands:  1 eigenvalues not converged
     c_bands:  2 eigenvalues not converged
     ethr =  5.19E-08,  avg # of iterations = 10.4

     total cpu time spent up to now is       22.5 secs

     total energy              =    -317.34939275 Ry
     estimated scf accuracy    <       0.00018911 Ry

     iteration #  5     ecut=    50.00 Ry     beta= 0.70
     CG style diagonalization
     ethr =  5.19E-08,  avg # of iterations =  3.1

     total cpu time spent up to now is       24.8 secs

     total energy              =    -317.34941791 Ry
     estimated scf accuracy    <       0.00019195 Ry

     iteration #  6     ecut=    50.00 Ry     beta= 0.70
     CG style diagonalization
     ethr =  5.19E-08,  avg # of iterations =  3.4

     total cpu time spent up to now is       27.4 secs

     total energy              =    -317.34972122 Ry
     estimated scf accuracy    <       0.00028167 Ry

     iteration #  7     ecut=    50.00 Ry     beta= 0.70
     CG style diagonalization
     ethr =  5.19E-08,  avg # of iterations =  7.8

     total cpu time spent up to now is       32.8 secs

     total energy              =    -317.34963903 Ry
     estimated scf accuracy    <       0.00255155 Ry

     iteration #  8     ecut=    50.00 Ry     beta= 0.70
     CG style diagonalization
     ethr =  5.19E-08,  avg # of iterations =  4.0

     total cpu time spent up to now is       35.7 secs

     total energy              =    -317.34907768 Ry
     estimated scf accuracy    <       0.00177755 Ry

     iteration #  9     ecut=    50.00 Ry     beta= 0.70
     CG style diagonalization
     ethr =  5.19E-08,  avg # of iterations =  7.8

     total cpu time spent up to now is       41.0 secs

     total energy              =    -317.34938389 Ry
     estimated scf accuracy    <       0.00002620 Ry

     iteration # 10     ecut=    50.00 Ry     beta= 0.70
     CG style diagonalization
     ethr =  5.19E-08,  avg # of iterations =  4.6

     total cpu time spent up to now is       44.3 secs

     total energy              =    -317.34934317 Ry
     estimated scf accuracy    <       0.00016640 Ry

     iteration # 11     ecut=    50.00 Ry     beta= 0.70
     CG style diagonalization
     ethr =  5.19E-08,  avg # of iterations =  3.9

     total cpu time spent up to now is       47.2 secs

     total energy              =    -317.34934617 Ry
     estimated scf accuracy    <       0.00001989 Ry

     iteration # 12     ecut=    50.00 Ry     beta= 0.70
     CG style diagonalization
     ethr =  5.19E-08,  avg # of iterations =  3.5

     total cpu time spent up to now is       49.8 secs

     total energy              =    -317.34934826 Ry
     estimated scf accuracy    <       0.00000447 Ry

     iteration # 13     ecut=    50.00 Ry     beta= 0.70
     CG style diagonalization
     ethr =  2.79E-08,  avg # of iterations =  3.7

     total cpu time spent up to now is       52.5 secs

     End of self-consistent calculation

          k = 0.0625 0.0625 0.0625 (  1829 PWs)   bands (ev):

    -9.0366  -9.0357  -9.0357  -8.9638  -8.9638  -3.8328   7.5883   8.0805
     8.0806  10.4711  10.5224  10.5225

          k = 0.0625 0.0625 0.1875 (  1839 PWs)   bands (ev):

    -9.0382  -9.0334  -9.0332  -8.9650  -8.9627  -3.6987   6.8129   7.5560
     7.7911  10.1517  10.9140  11.1940

          k = 0.0625 0.0625 0.3125 (  1823 PWs)   bands (ev):

    -9.0415  -9.0287  -9.0284  -8.9673  -8.9606  -3.4315   5.9508   6.9138
     7.0695   9.6260  11.7051  12.1190

          k = 0.0625 0.0625 0.4375 (  1825 PWs)   bands (ev):

    -9.0459  -9.0225  -9.0222  -8.9707  -8.9579  -3.0340   5.0366   6.3119
     6.3156   9.0980  10.9912  13.1157

          k = 0.0625 0.0625 0.5625 (  1822 PWs)   bands (ev):

    -9.0505  -9.0156  -9.0153  -8.9746  -8.9550  -2.5112   4.0529   5.6736
     5.8116   8.6408  10.0712  14.1108

          k = 0.0625 0.0625 0.6875 (  1809 PWs)   bands (ev):

    -9.0547  -9.0092  -9.0088  -8.9784  -8.9524  -1.8731   3.0200   5.1986
     5.4222   8.2854   9.3720  15.1243

          k = 0.0625 0.0625 0.8125 (  1800 PWs)   bands (ev):

    -9.0579  -9.0041  -9.0037  -8.9816  -8.9504  -1.1444   1.9998   4.8871
     5.1580   8.0451   8.9107  16.1783

          k = 0.0625 0.0625 0.9375 (  1801 PWs)   bands (ev):

    -9.0597  -9.0014  -9.0010  -8.9834  -8.9494  -0.4364   1.1371   4.7329
     5.0246   7.9247   8.6822  17.0499

          k = 0.0625 0.1875 0.1875 (  1836 PWs)   bands (ev):

    -9.0378  -9.0329  -9.0313  -8.9648  -8.9627  -3.5655   6.0158   7.1135
     7.9805  10.5796  10.7229  11.1228

          k = 0.0625 0.1875 0.3125 (  1830 PWs)   bands (ev):

    -9.0400  -9.0291  -9.0277  -8.9665  -8.9611  -3.3005   5.2037   6.4627
     7.5516  10.2692  11.1797  11.8432

          k = 0.0625 0.1875 0.4375 (  1823 PWs)   bands (ev):

    -9.0437  -9.0234  -9.0223  -8.9694  -8.9585  -2.9069   4.4206   5.8328
     6.7800   9.7528  11.4755  12.0577

          k = 0.0625 0.1875 0.5625 (  1824 PWs)   bands (ev):

    -9.0479  -9.0176  -9.0156  -8.9729  -8.9558  -2.3910   3.6411   5.2658
     6.0027   9.2741  10.6658  12.8980

          k = 0.0625 0.1875 0.6875 (  1814 PWs)   bands (ev):

    -9.0517  -9.0122  -9.0091  -8.9765  -8.9535  -1.7648   2.8192   4.7769
     5.4015   8.8858  10.0593  13.7887

          k = 0.0625 0.1875 0.8125 (  1810 PWs)   bands (ev):

    -9.0546  -9.0078  -9.0040  -8.9795  -8.9519  -1.0576   1.9557   4.4126
     5.0300   8.6137   9.6717  14.7178

          k = 0.0625 0.1875 0.9375 (  1808 PWs)   bands (ev):

    -9.0562  -9.0053  -9.0012  -8.9813  -8.9511  -0.3906   1.1956   4.2230
     4.8567   8.4739   9.4838  15.6618

          k = 0.0625 0.3125 0.3125 (  1831 PWs)   bands (ev):

    -9.0390  -9.0278  -9.0260  -8.9658  -8.9613  -3.0404   4.4412   5.8237
     7.6511  10.7856  11.1507  11.5102

          k = 0.0625 0.3125 0.4375 (  1831 PWs)   bands (ev):

    -9.0406  -9.0240  -9.0225  -8.9672  -8.9598  -2.6558   3.7349   5.2161
     7.1161  10.7217  11.0660  12.2868

          k = 0.0625 0.3125 0.5625 (  1825 PWs)   bands (ev):

    -9.0436  -9.0206  -9.0160  -8.9700  -8.9577  -2.1555   3.0863   4.6931
     6.2625  10.2853  11.4545  11.7849

          k = 0.0625 0.3125 0.6875 (  1821 PWs)   bands (ev):

    -9.0465  -9.0171  -9.0094  -8.9733  -8.9558  -1.5566   2.4663   4.2718
     5.4196   9.9056  11.1194  12.3115

          k = 0.0625 0.3125 0.8125 (  1820 PWs)   bands (ev):

    -9.0489  -9.0140  -9.0042  -8.9762  -8.9546  -0.8990   1.8401   3.9598
     4.7937   9.6401  10.8000  13.1323

          k = 0.0625 0.3125 0.9375 (  1812 PWs)   bands (ev):

    -9.0501  -9.0121  -9.0013  -8.9778  -8.9539  -0.3211   1.2850   3.7825
     4.4824   9.5043  10.6414  14.0392

          k = 0.0625 0.4375 0.4375 (  1831 PWs)   bands (ev):

    -9.0390  -9.0229  -9.0212  -8.9653  -8.9614  -2.2877   3.0995   4.6339
     7.0539  10.3449  11.8557  12.1149

          k = 0.0625 0.4375 0.5625 (  1823 PWs)   bands (ev):

    -9.0398  -9.0221  -9.0160  -8.9666  -8.9606  -1.8163   2.5428   4.1489
     6.4528  10.2856  11.5790  12.9287

          k = 0.0625 0.4375 0.6875 (  1817 PWs)   bands (ev):

    -9.0415  -9.0209  -9.0097  -8.9699  -8.9587  -1.2684   2.0658   3.7925
     5.5774  10.6389  11.3146  12.5443

          k = 0.0625 0.4375 0.8125 (  1817 PWs)   bands (ev):

    -9.0431  -9.0197  -9.0043  -8.9729  -8.9573  -0.7026   1.6575   3.5887
     4.7543  10.8214  11.5323  12.3131

          k = 0.0625 0.4375 0.9375 (  1813 PWs)   bands (ev):

    -9.0439  -9.0188  -9.0014  -8.9748  -8.9566  -0.2680   1.3535   3.5422
     4.2147  10.7590  11.8702  12.5974

          k = 0.0625 0.5625 0.5625 (  1813 PWs)   bands (ev):

    -9.0395  -9.0206  -9.0143  -8.9651  -8.9624  -1.3962   2.0752   3.7112
     6.3530   9.5513  12.8567  13.0827

          k = 0.0625 0.5625 0.6875 (  1814 PWs)   bands (ev):

    -9.0412  -9.0194  -9.0095  -8.9690  -8.9598  -0.9389   1.7131   3.4306
     5.7681   9.5265  12.6652  13.9250

          k = 0.0625 0.5625 0.8125 (  1818 PWs)   bands (ev):

    -9.0430  -9.0190  -9.0044  -8.9727  -8.9577  -0.5241   1.4713   3.3611
     4.9430  10.0280  12.3936  13.1987

          k = 0.0625 0.6875 0.6875 (  1816 PWs)   bands (ev):

    -9.0448  -9.0147  -9.0081  -8.9721  -8.9577  -0.6317   1.4651   3.2656
     5.7228   8.8466  12.9373  14.1259

          k = 0.0625 0.6875 0.8125 (  1813 PWs)   bands (ev):

    -9.0482  -9.0126  -9.0043  -8.9757  -8.9553  -0.4175   1.3335   3.3746
     5.2115   8.9219  11.7102  14.1223

          k = 0.0625 0.8125 0.8125 (  1817 PWs)   bands (ev):

    -9.0533  -9.0068  -9.0035  -8.9791  -8.9527  -0.3875   1.2438   3.6800
     5.2639   8.3330  10.4826  15.5964

          k = 0.1875 0.1875 0.1875 (  1835 PWs)   bands (ev):

    -9.0377  -9.0310  -9.0310  -8.9636  -8.9636  -3.4334   5.2330   7.5753
     7.5755  10.1227  11.1454  11.1458

          k = 0.1875 0.1875 0.3125 (  1826 PWs)   bands (ev):

    -9.0393  -9.0285  -9.0273  -8.9654  -8.9615  -3.1711   4.4501   7.0235
     7.3047  10.2345  10.9328  11.7398

          k = 0.1875 0.1875 0.4375 (  1832 PWs)   bands (ev):

    -9.0424  -9.0241  -9.0223  -8.9681  -8.9589  -2.7826   3.7367   6.4809
     6.4950   9.8802  11.5938  12.3870

          k = 0.1875 0.1875 0.5625 (  1828 PWs)   bands (ev):

    -9.0460  -9.0188  -9.0166  -8.9713  -8.9564  -2.2757   3.0903   5.5521
     6.0111   9.3147  11.4721  13.0825

          k = 0.1875 0.1875 0.6875 (  1817 PWs)   bands (ev):

    -9.0494  -9.0135  -9.0108  -8.9746  -8.9544  -1.6659   2.4730   4.6731
     5.6431   8.8344  10.9651  13.8552

          k = 0.1875 0.1875 0.8125 (  1811 PWs)   bands (ev):

    -9.0519  -9.0092  -9.0061  -8.9775  -8.9532  -0.9908   1.8324   4.0155
     5.3915   8.5016  10.6405  14.7082

          k = 0.1875 0.3125 0.3125 (  1834 PWs)   bands (ev):

    -9.0393  -9.0270  -9.0259  -8.9645  -8.9616  -2.9150   3.6947   6.6039
     7.4575  10.1613  11.1059  11.4312

          k = 0.1875 0.3125 0.4375 (  1832 PWs)   bands (ev):

    -9.0407  -9.0242  -9.0224  -8.9659  -8.9599  -2.5381   3.0267   6.0153
     7.0060  10.2985  10.9731  11.8970

          k = 0.1875 0.3125 0.5625 (  1823 PWs)   bands (ev):

    -9.0429  -9.0209  -9.0172  -8.9685  -8.9578  -2.0523   2.4627   5.3661
     6.2840   9.8578  11.5259  12.6167

          k = 0.1875 0.3125 0.6875 (  1815 PWs)   bands (ev):

    -9.0453  -9.0175  -9.0116  -8.9714  -8.9563  -1.4820   1.9995   4.6006
     5.7096   9.4000  12.0186  12.4823

          k = 0.1875 0.3125 0.8125 (  1818 PWs)   bands (ev):

    -9.0472  -9.0144  -9.0070  -8.9741  -8.9556  -0.8844   1.6186   3.8491
     5.3695   9.0815  11.8402  13.2310

          k = 0.1875 0.4375 0.4375 (  1825 PWs)   bands (ev):

    -9.0398  -9.0226  -9.0217  -8.9640  -8.9610  -2.1833   2.4086   5.4859
     7.0412  10.2931  11.3517  11.3951

          k = 0.1875 0.4375 0.5625 (  1817 PWs)   bands (ev):

    -9.0403  -9.0220  -9.0174  -8.9653  -8.9602  -1.7390   1.9191   4.9607
     6.5102  10.3614  10.9024  12.4744

          k = 0.1875 0.4375 0.6875 (  1810 PWs)   bands (ev):

    -9.0414  -9.0210  -9.0119  -8.9682  -8.9588  -1.2479   1.5867   4.4268
     5.7701  10.4018  10.9489  13.5342

          k = 0.1875 0.4375 0.8125 (  1815 PWs)   bands (ev):

    -9.0424  -9.0198  -9.0072  -8.9709  -8.9580  -0.7977   1.4443   3.8423
     5.2052  10.1610  11.6240  13.3186

          k = 0.1875 0.5625 0.5625 (  1816 PWs)   bands (ev):

    -9.0400  -9.0209  -9.0160  -8.9642  -8.9615  -1.3740   1.5292   4.5389
     6.4285   9.6880  12.1217  12.1636

          k = 0.1875 0.5625 0.6875 (  1816 PWs)   bands (ev):

    -9.0412  -9.0201  -9.0118  -8.9676  -8.9594  -1.0298   1.3578   4.1636
     5.8971   9.6745  11.8415  13.5094

          k = 0.1875 0.6875 0.6875 (  1821 PWs)   bands (ev):

    -9.0442  -9.0163  -9.0104  -8.9707  -8.9575  -0.9059   1.3871   3.9366
     5.8350   9.0152  12.9384  13.3108

          k = 0.3125 0.3125 0.3125 (  1841 PWs)   bands (ev):

    -9.0399  -9.0253  -9.0253  -8.9624  -8.9624  -2.6682   2.9544   7.1248
     7.1249   9.7140  11.1904  11.1907

          k = 0.3125 0.3125 0.4375 (  1836 PWs)   bands (ev):

    -9.0407  -9.0239  -9.0224  -8.9639  -8.9602  -2.3097   2.3215   6.7358
     6.7953   9.9336  10.8472  11.4687

          k = 0.3125 0.3125 0.5625 (  1821 PWs)   bands (ev):

    -9.0419  -9.0216  -9.0186  -8.9659  -8.9584  -1.8597   1.8273   5.9089
     6.3622   9.7865  11.3128  11.9290

          k = 0.3125 0.3125 0.6875 (  1811 PWs)   bands (ev):

    -9.0431  -9.0188  -9.0143  -8.9684  -8.9576  -1.3616   1.5021   4.8903
     6.0530   9.3444  12.2659  12.5512

          k = 0.3125 0.4375 0.4375 (  1827 PWs)   bands (ev):

    -9.0409  -9.0223  -9.0222  -8.9622  -8.9606  -1.9884   1.7414   6.3935
     6.9931   9.8768  11.0208  11.0331

          k = 0.3125 0.4375 0.5625 (  1819 PWs)   bands (ev):

    -9.0411  -9.0218  -9.0192  -8.9633  -8.9598  -1.6135   1.3420   5.8636
     6.6056  10.1607  10.6613  11.6417

          k = 0.3125 0.4375 0.6875 (  1815 PWs)   bands (ev):

    -9.0412  -9.0211  -9.0154  -8.9655  -8.9593  -1.2616   1.1935   5.0742
     6.1672   9.9546  11.0873  12.5348

          k = 0.3125 0.5625 0.5625 (  1824 PWs)   bands (ev):

    -9.0409  -9.0213  -9.0184  -8.9627  -8.9605  -1.3853   1.1028   5.5434
     6.5656   9.8987  11.1929  11.5373

          k = 0.4375 0.4375 0.4375 (  1823 PWs)   bands (ev):

    -9.0416  -9.0220  -9.0220  -8.9607  -8.9607  -1.7392   1.2413   6.8881
     6.8882   9.5009  10.9287  10.9299

          k = 0.4375 0.4375 0.5625 (  1819 PWs)   bands (ev):

    -9.0415  -9.0216  -9.0206  -8.9614  -8.9601  -1.5087   0.9998   6.4697
     6.7329   9.7962  10.7706  11.1072

     the Fermi energy is     5.5221 ev

!    total energy              =    -317.34934982 Ry
     total all-electron energy =     -4373.656792 Ry
     estimated scf accuracy    <       0.00000098 Ry
     smearing contrib. (-TS)   =      -0.00133070 Ry
     internal energy E=F+TS    =    -317.34801912 Ry

     The total energy is F=E-TS. E is the sum of the following terms:
     one-electron contribution =    -124.53268692 Ry
     hartree contribution      =      75.78329758 Ry
     xc contribution           =     -40.62275821 Ry
     ewald contribution        =     -82.24853883 Ry
     one-center paw contrib.   =    -145.72733272 Ry

     convergence has been achieved in  13 iterations

     Forces acting on atoms (cartesian axes, Ry/au):

     atom    1 type  2   force =     0.00000000    0.00000000    0.00000000
     atom    2 type  1   force =     0.00000000   -0.00000000    0.00000000

     Total force =     0.000000     Total SCF correction =     0.000000


     Computing stress (Cartesian axis) and pressure

          total   stress  (Ry/bohr**3)                   (kbar)     P=       71.60
   0.00048670   0.00000000   0.00000000           71.60        0.00        0.00
  -0.00000000   0.00048670   0.00000000           -0.00       71.60        0.00
   0.00000000   0.00000000   0.00048670            0.00        0.00       71.60


     Writing all to output data dir /home/nico-sachs/source/q-e/tempdir/al.save/ :
     XML data file, charge density, pseudopotentials, collected wavefunctions

     init_run     :      1.28s CPU      1.33s WALL (       1 calls)
     electrons    :     49.93s CPU     50.99s WALL (       1 calls)
     forces       :      0.36s CPU      0.36s WALL (       1 calls)
     stress       :      1.51s CPU      1.51s WALL (       1 calls)

     Called by init_run:
     wfcinit      :      0.58s CPU      0.58s WALL (       1 calls)
     potinit      :      0.33s CPU      0.37s WALL (       1 calls)
     hinit0       :      0.34s CPU      0.34s WALL (       1 calls)

     Called by electrons:
     c_bands      :     42.77s CPU     43.55s WALL (      14 calls)
     sum_band     :      2.62s CPU      2.65s WALL (      14 calls)
     v_of_rho     :      0.06s CPU      0.06s WALL (      14 calls)
     newd         :      0.29s CPU      0.34s WALL (      14 calls)
     PAW_pot      :      4.50s CPU      4.75s WALL (      14 calls)
     mix_rho      :      0.01s CPU      0.01s WALL (      14 calls)

     Called by c_bands:
     init_us_2    :      0.90s CPU      0.91s WALL (    1860 calls)
     ccgdiagg     :     37.20s CPU     37.93s WALL (     840 calls)
     wfcrot       :      5.59s CPU      5.64s WALL (     780 calls)

     Called by *cgdiagg:
     h_psi        :     21.84s CPU     22.24s WALL (   43294 calls)
     s_psi        :      9.85s CPU     10.04s WALL (   85808 calls)

     Called by h_psi:
     h_psi:calbec :      6.95s CPU      7.07s WALL (   43294 calls)
     vloc_psi     :      9.16s CPU      9.34s WALL (   43294 calls)
                                        0.00s GPU  (   43294 calls)
     add_vuspsi   :      5.42s CPU      5.51s WALL (   43294 calls)
     hs_1psi      :     22.99s CPU     23.44s WALL (   42514 calls)
     s_1psi       :     10.60s CPU     10.80s WALL (   42514 calls)

     General routines
     calbec       :     14.96s CPU     15.22s WALL (   87668 calls)
     fft          :      0.06s CPU      0.06s WALL (     180 calls)
     ffts         :      0.00s CPU      0.00s WALL (      14 calls)
     fftw         :      8.41s CPU      8.57s WALL (  113948 calls)

     Parallel routines

     PWSCF        :     53.26s CPU     54.40s WALL


   This run was terminated on:  16:19:15  26Jan2026            

=------------------------------------------------------------------------------=
   JOB DONE.
=------------------------------------------------------------------------------=
