
     Program PWSCF v.7.5 starts on 24Feb2026 at 15:21:38 
        Git branch: develop
        Last git commit: 797f00f1d3f390f642411209b167af6668f3cb83
        Last git commit date: Mon Dec 8 18:25:28 2025 +0000
        Last git commit subject: Merge branch 'uniform_uv' into 'develop'

     This program is part of the open-source Quantum ESPRESSO suite
     for quantum simulation of materials; please cite
         "P. Giannozzi et al., J. Phys.:Condens. Matter 21 395502 (2009);
         "P. Giannozzi et al., J. Phys.:Condens. Matter 29 465901 (2017);
         "P. Giannozzi et al., J. Chem. Phys. 152 154105 (2020);
          URL http://www.quantum-espresso.org", 
     in publications or presentations arising from this work. More details at
     http://www.quantum-espresso.org/quote

     Parallel version (MPI), running on    24 processors

     MPI processes distributed on     1 nodes
     95275 MiB available memory on the printing compute node when the environment starts

     Waiting for input...
     Reading input from standard input

     Current dimensions of program PWSCF are:
     Max number of different atomic species (ntypx) = 10
     Max number of k-points (npk) =  40000
     Max angular momentum in pseudopotentials (lmaxx) =  4

     R & G space division:  proc/nbgrp/npool/nimage =      24
     Subspace diagonalization in iterative solution of the eigenvalue problem:
     a serial algorithm will be used


     Parallelization info
     --------------------
     sticks:   dense  smooth     PW     G-vecs:    dense   smooth      PW
     Min         113      75     21                 3864     2104     331
     Max         114      76     22                 3867     2109     336
     Sum        2713    1801    517                92769    50557    7991

     Using Slab Decomposition



     bravais-lattice index     =            2
     lattice parameter (alat)  =      11.4291  a.u.
     unit-cell volume          =     373.2260 (a.u.)^3
     number of atoms/cell      =            2
     number of atomic types    =            2
     number of electrons       =        28.00
     number of Kohn-Sham states=           14
     kinetic-energy cutoff     =     100.0000  Ry
     charge density cutoff     =     600.0000  Ry
     scf convergence threshold =      1.0E-09
     mixing beta               =       0.7000
     number of iterations used =            8  plain     mixing
     energy convergence thresh.=      1.0E-04
     force convergence thresh. =      1.0E-07
     press convergence thresh. =      5.0E-01
     Exchange-correlation= PBESOL
                           (   1   4  10   8   0   0   0)
     nstep                     =           50


     celldm(1)=  11.429063  celldm(2)=   0.000000  celldm(3)=   0.000000
     celldm(4)=   0.000000  celldm(5)=   0.000000  celldm(6)=   0.000000

     crystal axes: (cart. coord. in units of alat)
               a(1) = (  -0.500000   0.000000   0.500000 )  
               a(2) = (   0.000000   0.500000   0.500000 )  
               a(3) = (  -0.500000   0.500000   0.000000 )  

     reciprocal axes: (cart. coord. in units 2 pi/alat)
               b(1) = ( -1.000000 -1.000000  1.000000 )  
               b(2) = (  1.000000  1.000000  1.000000 )  
               b(3) = ( -1.000000  1.000000 -1.000000 )  


     PseudoPot. # 1 for In read from file:
     /home/sachs/software/q-e/Pseudofolder/nc-sr-04_pbesol_standard_upf/In.upf
     MD5 check sum: 177c8ddcbbe89ff41d61e1e5cdeeb500
     Pseudo is Norm-conserving + core correction, Zval = 13.0
     Generated using ONCVPSP code by D. R. Hamann
     Using radial grid of 1940 points,  6 beta functions with: 
                l(1) =   0
                l(2) =   0
                l(3) =   1
                l(4) =   1
                l(5) =   2
                l(6) =   2

     PseudoPot. # 2 for As read from file:
     /home/sachs/software/q-e/Pseudofolder/nc-sr-04_pbesol_standard_upf/As.upf
     MD5 check sum: 8e1cf9692a75f2b458f16819c50a4a5a
     Pseudo is Norm-conserving + core correction, Zval = 15.0
     Generated using ONCVPSP code by D. R. Hamann
     Using radial grid of 1342 points,  6 beta functions with: 
                l(1) =   0
                l(2) =   0
                l(3) =   1
                l(4) =   1
                l(5) =   2
                l(6) =   2

     atomic species   valence    mass     pseudopotential
     In               13.00   114.81800     In( 1.00)
     As               15.00    74.92100     As( 1.00)

     24 Sym. Ops. (no inversion) found



   Cartesian axes

     site n.     atom                  positions (alat units)
         1        In     tau(   1) = (   0.0000000   0.0000000   0.0000000  )
         2        As     tau(   2) = (  -0.2500000   0.2500000   0.2500000  )

     number of k points=   770

     Number of k-points >= 100: set verbosity='high' to print them.

     Dense  grid:    92769 G-vectors     FFT dimensions: (  64,  64,  64)

     Smooth grid:    50557 G-vectors     FFT dimensions: (  54,  54,  54)

     Estimated max dynamical RAM per process >      53.83 MB

     Estimated total dynamical RAM >       1.26 GB

     Initial potential from superposition of free atoms

     starting charge      27.9963, renormalised to      28.0000
     Starting wfcs are   18 randomized atomic wfcs

     total cpu time spent up to now is       50.8 secs

     per-process dynamical memory:    58.8 Mb

     Self-consistent Calculation

     iteration #  1     ecut=   100.00 Ry     beta= 0.70
     CG style diagonalization
     ethr =  1.00E-02,  avg # of iterations =  2.4

     Threshold (ethr) on eigenvalues was too large:
     Diagonalizing with lowered threshold

     CG style diagonalization
     ethr =  2.03E-04,  avg # of iterations =  3.0

     total cpu time spent up to now is      135.4 secs

     total energy              =    -344.47127514 Ry
     estimated scf accuracy    <       0.06377115 Ry

     iteration #  2     ecut=   100.00 Ry     beta= 0.70
     CG style diagonalization
     ethr =  2.28E-04,  avg # of iterations =  3.6

     total cpu time spent up to now is      188.8 secs

     total energy              =    -344.48608545 Ry
     estimated scf accuracy    <       0.01447714 Ry

     iteration #  3     ecut=   100.00 Ry     beta= 0.70
     CG style diagonalization
     ethr =  5.17E-05,  avg # of iterations =  3.6

     total cpu time spent up to now is      241.2 secs

     total energy              =    -344.48975576 Ry
     estimated scf accuracy    <       0.00025778 Ry

     iteration #  4     ecut=   100.00 Ry     beta= 0.70
     CG style diagonalization
     ethr =  9.21E-07,  avg # of iterations =  5.6

     total cpu time spent up to now is      322.6 secs

     total energy              =    -344.49004623 Ry
     estimated scf accuracy    <       0.00009760 Ry

     iteration #  5     ecut=   100.00 Ry     beta= 0.70
     CG style diagonalization
     ethr =  3.49E-07,  avg # of iterations =  3.0

     total cpu time spent up to now is      366.9 secs

     total energy              =    -344.49002165 Ry
     estimated scf accuracy    <       0.00004366 Ry

     iteration #  6     ecut=   100.00 Ry     beta= 0.70
     CG style diagonalization
     ethr =  1.56E-07,  avg # of iterations =  4.7

     total cpu time spent up to now is      436.0 secs

     total energy              =    -344.49004170 Ry
     estimated scf accuracy    <       0.00000590 Ry

     iteration #  7     ecut=   100.00 Ry     beta= 0.70
     CG style diagonalization
     ethr =  2.11E-08,  avg # of iterations =  3.4

     total cpu time spent up to now is      486.3 secs

     total energy              =    -344.49004452 Ry
     estimated scf accuracy    <       0.00000490 Ry

     iteration #  8     ecut=   100.00 Ry     beta= 0.70
     CG style diagonalization
     ethr =  1.75E-08,  avg # of iterations =  3.1

     total cpu time spent up to now is      531.0 secs

     total energy              =    -344.49004493 Ry
     estimated scf accuracy    <       0.00000871 Ry

     iteration #  9     ecut=   100.00 Ry     beta= 0.70
     CG style diagonalization
     ethr =  1.75E-08,  avg # of iterations =  3.0

     total cpu time spent up to now is      574.9 secs

     total energy              =    -344.49004059 Ry
     estimated scf accuracy    <       0.00000925 Ry

     iteration # 10     ecut=   100.00 Ry     beta= 0.70
     CG style diagonalization
     ethr =  1.75E-08,  avg # of iterations =  4.3

     total cpu time spent up to now is      638.0 secs

     total energy              =    -344.49004322 Ry
     estimated scf accuracy    <       0.00000619 Ry

     iteration # 11     ecut=   100.00 Ry     beta= 0.70
     CG style diagonalization
     ethr =  1.75E-08,  avg # of iterations =  3.0

     total cpu time spent up to now is      681.9 secs

     total energy              =    -344.49004367 Ry
     estimated scf accuracy    <       0.00000752 Ry

     iteration # 12     ecut=   100.00 Ry     beta= 0.70
     CG style diagonalization
     ethr =  1.75E-08,  avg # of iterations =  3.0

     total cpu time spent up to now is      725.8 secs

     total energy              =    -344.49004028 Ry
     estimated scf accuracy    <       0.00000853 Ry

     iteration # 13     ecut=   100.00 Ry     beta= 0.70
     CG style diagonalization
     ethr =  1.75E-08,  avg # of iterations =  3.2

     total cpu time spent up to now is      772.2 secs

     total energy              =    -344.49004194 Ry
     estimated scf accuracy    <       0.00000071 Ry

     iteration # 14     ecut=   100.00 Ry     beta= 0.70
     CG style diagonalization
     ethr =  2.52E-09,  avg # of iterations =  3.2

     total cpu time spent up to now is      819.6 secs

     total energy              =    -344.49004085 Ry
     estimated scf accuracy    <       0.00000394 Ry

     iteration # 15     ecut=   100.00 Ry     beta= 0.70
     CG style diagonalization
     ethr =  2.52E-09,  avg # of iterations =  3.0

     total cpu time spent up to now is      863.4 secs

     total energy              =    -344.49004011 Ry
     estimated scf accuracy    <       0.00000160 Ry

     iteration # 16     ecut=   100.00 Ry     beta= 0.70
     CG style diagonalization
     ethr =  2.52E-09,  avg # of iterations =  4.3

     total cpu time spent up to now is      925.5 secs

     total energy              =    -344.49004039 Ry
     estimated scf accuracy    <       0.00000029 Ry

     iteration # 17     ecut=   100.00 Ry     beta= 0.70
     CG style diagonalization
     ethr =  1.04E-09,  avg # of iterations =  3.0

     total cpu time spent up to now is      969.5 secs

     total energy              =    -344.49004038 Ry
     estimated scf accuracy    <       0.00000015 Ry

     iteration # 18     ecut=   100.00 Ry     beta= 0.70
     CG style diagonalization
     ethr =  5.26E-10,  avg # of iterations =  3.2

     total cpu time spent up to now is     1016.4 secs

     total energy              =    -344.49004037 Ry
     estimated scf accuracy    <       0.00000011 Ry

     iteration # 19     ecut=   100.00 Ry     beta= 0.70
     CG style diagonalization
     ethr =  4.01E-10,  avg # of iterations =  3.0

     total cpu time spent up to now is     1060.8 secs

     total energy              =    -344.49004038 Ry
     estimated scf accuracy    <       0.00000008 Ry

     iteration # 20     ecut=   100.00 Ry     beta= 0.70
     CG style diagonalization
     ethr =  2.95E-10,  avg # of iterations =  3.0

     total cpu time spent up to now is     1104.6 secs

     total energy              =    -344.49004035 Ry
     estimated scf accuracy    <       0.00000008 Ry

     iteration # 21     ecut=   100.00 Ry     beta= 0.70
     CG style diagonalization
     ethr =  2.86E-10,  avg # of iterations =  3.4

     total cpu time spent up to now is     1154.9 secs

     total energy              =    -344.49004036 Ry
     estimated scf accuracy    <       0.00000003 Ry

     iteration # 22     ecut=   100.00 Ry     beta= 0.70
     CG style diagonalization
     ethr =  1.00E-10,  avg # of iterations =  4.6

     total cpu time spent up to now is     1222.6 secs

     total energy              =    -344.49004036 Ry
     estimated scf accuracy    <       0.00000010 Ry

     iteration # 23     ecut=   100.00 Ry     beta= 0.70
     CG style diagonalization
     ethr =  1.00E-10,  avg # of iterations =  3.8

     total cpu time spent up to now is     1277.9 secs

     total energy              =    -344.49004037 Ry
     estimated scf accuracy    <       0.00000004 Ry

     iteration # 24     ecut=   100.00 Ry     beta= 0.70
     CG style diagonalization
     ethr =  1.00E-10,  avg # of iterations =  3.0

     total cpu time spent up to now is     1321.7 secs

     total energy              =    -344.49004037 Ry
     estimated scf accuracy    <       0.00000004 Ry

     iteration # 25     ecut=   100.00 Ry     beta= 0.70
     CG style diagonalization
     ethr =  1.00E-10,  avg # of iterations =  3.0

     total cpu time spent up to now is     1365.5 secs

     total energy              =    -344.49004035 Ry
     estimated scf accuracy    <       0.00000004 Ry

     iteration # 26     ecut=   100.00 Ry     beta= 0.70
     CG style diagonalization
     ethr =  1.00E-10,  avg # of iterations =  3.7

     total cpu time spent up to now is     1419.4 secs

     total energy              =    -344.49004035 Ry
     estimated scf accuracy    <          6.7E-09 Ry

     iteration # 27     ecut=   100.00 Ry     beta= 0.70
     CG style diagonalization
     ethr =  2.40E-11,  avg # of iterations =  3.8

     total cpu time spent up to now is     1474.3 secs

     total energy              =    -344.49004036 Ry
     estimated scf accuracy    <          1.7E-09 Ry

     iteration # 28     ecut=   100.00 Ry     beta= 0.70
     CG style diagonalization
     ethr =  6.05E-12,  avg # of iterations =  4.3

     total cpu time spent up to now is     1537.7 secs

     End of self-consistent calculation

     Number of k-points >= 100: set verbosity='high' to print the bands.

     highest occupied level (ev):     7.9428

!    total energy              =    -344.49004036 Ry
     estimated scf accuracy    <          7.6E-10 Ry

     The total energy is the sum of the following terms:
     one-electron contribution =    -176.98833686 Ry
     hartree contribution      =     104.62814056 Ry
     xc contribution           =     -86.70863091 Ry
     ewald contribution        =    -185.42121314 Ry

     convergence has been achieved in  28 iterations

     Forces acting on atoms (cartesian axes, Ry/au):

     atom    1 type  1   force =     0.00000000    0.00000000    0.00000000
     atom    2 type  2   force =     0.00000000    0.00000000    0.00000000

     Total force =     0.000000     Total SCF correction =     0.000000


     Computing stress (Cartesian axis) and pressure

          total   stress  (Ry/bohr**3)                   (kbar)     P=       12.16
   0.00008265   0.00000000   0.00000000           12.16        0.00        0.00
   0.00000000   0.00008265  -0.00000000            0.00       12.16       -0.00
   0.00000000  -0.00000000   0.00008265            0.00       -0.00       12.16


     BFGS Geometry Optimization
     Energy error            =      1.9E-04 Ry
     Gradient error          =      0.0E+00 Ry/Bohr
     Cell gradient error     =      1.2E+01 kbar

     number of scf cycles    =   1
     number of bfgs steps    =   0

     enthalpy           new  =    -344.4900403553 Ry

     new trust radius        =       0.0079838864 bohr
     new conv_thr            =       0.0000000010 Ry

     new unit-cell volume =    375.54438 a.u.^3 (    55.64994 Ang^3 )
     density =      5.66162 g/cm^3

CELL_PARAMETERS (alat= 11.42906278)
  -0.501033162  -0.000000000   0.501033162
   0.000000000   0.501033162   0.501033162
  -0.501033162   0.501033162  -0.000000000

ATOMIC_POSITIONS (crystal)
In               0.0000000000        0.0000000000        0.0000000000
As               0.2500000000        0.2500000000        0.2500000000



     Writing config-only to output data dir /home/sachs/software/q-e/tempdir/inasPBEsol.save/ :
     XML data file
     NEW-OLD atomic charge density approx. for the potential
     New effective cutoffs (rho, wfc):  595.65   99.59

     total cpu time spent up to now is     1557.0 secs

     per-process dynamical memory:    60.6 Mb

     Self-consistent Calculation

     iteration #  1     ecut=   100.00 Ry     beta= 0.70
     CG style diagonalization
     ethr =  1.00E-06,  avg # of iterations =  4.0

     Threshold (ethr) on eigenvalues was too large:
     Diagonalizing with lowered threshold

     CG style diagonalization
     ethr =  3.93E-09,  avg # of iterations =  5.0

     total cpu time spent up to now is     1696.6 secs

     total energy              =    -344.49020167 Ry
     estimated scf accuracy    <       0.00000047 Ry

     iteration #  2     ecut=   100.00 Ry     beta= 0.70
     CG style diagonalization
     ethr =  1.69E-09,  avg # of iterations =  3.7

     total cpu time spent up to now is     1750.9 secs

     total energy              =    -344.49020175 Ry
     estimated scf accuracy    <       0.00000007 Ry

     iteration #  3     ecut=   100.00 Ry     beta= 0.70
     CG style diagonalization
     ethr =  2.36E-10,  avg # of iterations =  4.0

     total cpu time spent up to now is     1810.3 secs

     total energy              =    -344.49020178 Ry
     estimated scf accuracy    <          6.2E-09 Ry

     iteration #  4     ecut=   100.00 Ry     beta= 0.70
     CG style diagonalization
     ethr =  2.21E-11,  avg # of iterations =  4.3

     total cpu time spent up to now is     1873.0 secs

     End of self-consistent calculation

     Number of k-points >= 100: set verbosity='high' to print the bands.

     highest occupied level (ev):     7.8588

!    total energy              =    -344.49020178 Ry
     estimated scf accuracy    <          4.7E-10 Ry

     The total energy is the sum of the following terms:
     one-electron contribution =    -177.61016981 Ry
     hartree contribution      =     104.86108004 Ry
     xc contribution           =     -86.70224912 Ry
     ewald contribution        =    -185.03886289 Ry

     convergence has been achieved in   4 iterations

     Forces acting on atoms (cartesian axes, Ry/au):

     atom    1 type  1   force =     0.00000000    0.00000000    0.00000000
     atom    2 type  2   force =     0.00000000    0.00000000    0.00000000

     Total force =     0.000000     Total SCF correction =     0.000000


     Computing stress (Cartesian axis) and pressure

          total   stress  (Ry/bohr**3)                   (kbar)     P=        8.35
   0.00005674   0.00000000   0.00000000            8.35        0.00        0.00
   0.00000000   0.00005674   0.00000000            0.00        8.35        0.00
   0.00000000   0.00000000   0.00005674            0.00        0.00        8.35

     Energy error            =      1.6E-04 Ry
     Gradient error          =      0.0E+00 Ry/Bohr
     Cell gradient error     =      8.3E+00 kbar

     number of scf cycles    =   2
     number of bfgs steps    =   1

     enthalpy           old  =    -344.4900403553 Ry
     enthalpy           new  =    -344.4902017808 Ry

     CASE: enthalpy          _new < enthalpy          _old

     new trust radius        =       0.0087913439 bohr
     new conv_thr            =            1.0E-11 Ry

     new unit-cell volume =    378.10569 a.u.^3 (    56.02948 Ang^3 )
     density =      5.62327 g/cm^3

CELL_PARAMETERS (alat= 11.42906278)
  -0.502169640  -0.000000000   0.502169640
   0.000000000   0.502169640   0.502169640
  -0.502169640   0.502169640  -0.000000000

ATOMIC_POSITIONS (crystal)
In               0.0000000000        0.0000000000        0.0000000000
As               0.2500000000        0.2500000000        0.2500000000



     Writing config-only to output data dir /home/sachs/software/q-e/tempdir/inasPBEsol.save/ :
     XML data file
     NEW-OLD atomic charge density approx. for the potential
     New effective cutoffs (rho, wfc):  592.96   99.14

     total cpu time spent up to now is     1892.2 secs

     per-process dynamical memory:    60.6 Mb

     Self-consistent Calculation

     iteration #  1     ecut=   100.00 Ry     beta= 0.70
     CG style diagonalization
     ethr =  1.00E-06,  avg # of iterations =  4.1

     Threshold (ethr) on eigenvalues was too large:
     Diagonalizing with lowered threshold

     CG style diagonalization
     ethr =  4.30E-09,  avg # of iterations =  5.0

     total cpu time spent up to now is     2032.1 secs

     total energy              =    -344.49031264 Ry
     estimated scf accuracy    <       0.00000051 Ry

     iteration #  2     ecut=   100.00 Ry     beta= 0.70
     CG style diagonalization
     ethr =  1.83E-09,  avg # of iterations =  3.6

     total cpu time spent up to now is     2085.4 secs

     total energy              =    -344.49031272 Ry
     estimated scf accuracy    <       0.00000006 Ry

     iteration #  3     ecut=   100.00 Ry     beta= 0.70
     CG style diagonalization
     ethr =  2.25E-10,  avg # of iterations =  4.2

     total cpu time spent up to now is     2146.6 secs

     total energy              =    -344.49031275 Ry
     estimated scf accuracy    <          7.3E-09 Ry

     iteration #  4     ecut=   100.00 Ry     beta= 0.70
     CG style diagonalization
     ethr =  2.62E-11,  avg # of iterations =  4.2

     total cpu time spent up to now is     2207.7 secs

     total energy              =    -344.49031275 Ry
     estimated scf accuracy    <          5.6E-10 Ry

     iteration #  5     ecut=   100.00 Ry     beta= 0.70
     CG style diagonalization
     ethr =  1.99E-12,  avg # of iterations =  4.5

     total cpu time spent up to now is     2274.7 secs

     total energy              =    -344.49031275 Ry
     estimated scf accuracy    <          4.6E-11 Ry

     iteration #  6     ecut=   100.00 Ry     beta= 0.70
     CG style diagonalization
     ethr =  1.66E-13,  avg # of iterations =  4.6

     total cpu time spent up to now is     2342.1 secs

     End of self-consistent calculation

     Number of k-points >= 100: set verbosity='high' to print the bands.

     highest occupied level (ev):     7.7672

!    total energy              =    -344.49031275 Ry
     estimated scf accuracy    <          3.8E-12 Ry

     The total energy is the sum of the following terms:
     one-electron contribution =    -178.29190985 Ry
     hartree contribution      =     105.11703418 Ry
     xc contribution           =     -86.69534230 Ry
     ewald contribution        =    -184.62009478 Ry

     convergence has been achieved in   6 iterations

     Forces acting on atoms (cartesian axes, Ry/au):

     atom    1 type  1   force =     0.00000000    0.00000000    0.00000000
     atom    2 type  2   force =     0.00000000    0.00000000    0.00000000

     Total force =     0.000000     Total SCF correction =     0.000000


     Computing stress (Cartesian axis) and pressure

          total   stress  (Ry/bohr**3)                   (kbar)     P=        4.39
   0.00002984  -0.00000000  -0.00000000            4.39       -0.00       -0.00
  -0.00000000   0.00002984   0.00000000           -0.00        4.39        0.00
  -0.00000000   0.00000000   0.00002984           -0.00        0.00        4.39

     Energy error            =      1.1E-04 Ry
     Gradient error          =      5.2E-31 Ry/Bohr
     Cell gradient error     =      4.4E+00 kbar

     number of scf cycles    =   3
     number of bfgs steps    =   2

     enthalpy           old  =    -344.4902017808 Ry
     enthalpy           new  =    -344.4903127505 Ry

     CASE: enthalpy          _new < enthalpy          _old

     new trust radius        =       0.0098584681 bohr
     new conv_thr            =            1.0E-11 Ry

     new unit-cell volume =    380.98844 a.u.^3 (    56.45666 Ang^3 )
     density =      5.58072 g/cm^3

CELL_PARAMETERS (alat= 11.42906278)
  -0.503442625   0.000000000   0.503442625
   0.000000000   0.503442625   0.503442625
  -0.503442625   0.503442625   0.000000000

ATOMIC_POSITIONS (crystal)
In               0.0000000000        0.0000000000       -0.0000000000
As               0.2500000000        0.2500000000        0.2500000000



     Writing config-only to output data dir /home/sachs/software/q-e/tempdir/inasPBEsol.save/ :
     XML data file
     NEW-OLD atomic charge density approx. for the potential
     New effective cutoffs (rho, wfc):  589.96   98.64

     total cpu time spent up to now is     2361.3 secs

     per-process dynamical memory:    60.6 Mb

     Self-consistent Calculation

     iteration #  1     ecut=   100.00 Ry     beta= 0.70
     CG style diagonalization
     ethr =  1.00E-06,  avg # of iterations =  4.2

     Threshold (ethr) on eigenvalues was too large:
     Diagonalizing with lowered threshold

     CG style diagonalization
     ethr =  5.05E-09,  avg # of iterations =  4.7

     total cpu time spent up to now is     2499.9 secs

     total energy              =    -344.49035615 Ry
     estimated scf accuracy    <       0.00000065 Ry

     iteration #  2     ecut=   100.00 Ry     beta= 0.70
     CG style diagonalization
     ethr =  2.31E-09,  avg # of iterations =  3.6

     total cpu time spent up to now is     2553.6 secs

     total energy              =    -344.49035626 Ry
     estimated scf accuracy    <       0.00000008 Ry

     iteration #  3     ecut=   100.00 Ry     beta= 0.70
     CG style diagonalization
     ethr =  2.90E-10,  avg # of iterations =  4.1

     total cpu time spent up to now is     2660.2 secs

     total energy              =    -344.49035629 Ry
     estimated scf accuracy    <          9.0E-09 Ry

     iteration #  4     ecut=   100.00 Ry     beta= 0.70
     CG style diagonalization
     ethr =  3.21E-11,  avg # of iterations =  4.2

     total cpu time spent up to now is     2720.4 secs

     total energy              =    -344.49035630 Ry
     estimated scf accuracy    <          6.7E-10 Ry

     iteration #  5     ecut=   100.00 Ry     beta= 0.70
     CG style diagonalization
     ethr =  2.41E-12,  avg # of iterations =  4.5

     total cpu time spent up to now is     2784.9 secs

     total energy              =    -344.49035630 Ry
     estimated scf accuracy    <          4.9E-11 Ry

     iteration #  6     ecut=   100.00 Ry     beta= 0.70
     CG style diagonalization
     ethr =  1.77E-13,  avg # of iterations =  4.9

     total cpu time spent up to now is     2853.9 secs

     End of self-consistent calculation

     Number of k-points >= 100: set verbosity='high' to print the bands.

     highest occupied level (ev):     7.6656

!    total energy              =    -344.49035630 Ry
     estimated scf accuracy    <          4.2E-12 Ry

     The total energy is the sum of the following terms:
     one-electron contribution =    -179.05222702 Ry
     hartree contribution      =     105.40280849 Ry
     xc contribution           =     -86.68766603 Ry
     ewald contribution        =    -184.15327174 Ry

     convergence has been achieved in   6 iterations

     Forces acting on atoms (cartesian axes, Ry/au):

     atom    1 type  1   force =     0.00000000    0.00000000    0.00000000
     atom    2 type  2   force =     0.00000000    0.00000000   -0.00000000

     Total force =     0.000000     Total SCF correction =     0.000000


     Computing stress (Cartesian axis) and pressure

          total   stress  (Ry/bohr**3)                   (kbar)     P=        0.08
   0.00000057   0.00000000   0.00000000            0.08        0.00        0.00
   0.00000000   0.00000057  -0.00000000            0.00        0.08       -0.00
   0.00000000  -0.00000000   0.00000057            0.00       -0.00        0.08

     Energy error            =      4.4E-05 Ry
     Gradient error          =      1.0E-30 Ry/Bohr
     Cell gradient error     =      8.4E-02 kbar

     bfgs converged in   4 scf cycles and   3 bfgs steps
     (criteria: energy <  1.0E-04 Ry, force <  1.0E-07 Ry/Bohr, cell <  5.0E-01 kbar)

     End of BFGS Geometry Optimization

     Final enthalpy           =    -344.4903562960 Ry

     File /home/sachs/software/q-e/tempdir/inasPBEsol.bfgs deleted, as requested
Begin final coordinates
     new unit-cell volume =    380.98844 a.u.^3 (    56.45666 Ang^3 )
     density =      5.58072 g/cm^3

CELL_PARAMETERS (alat= 11.42906278)
  -0.503442625   0.000000000   0.503442625
   0.000000000   0.503442625   0.503442625
  -0.503442625   0.503442625   0.000000000

ATOMIC_POSITIONS (crystal)
In               0.0000000000        0.0000000000       -0.0000000000
As               0.2500000000        0.2500000000        0.2500000000
End final coordinates



     Writing config-only to output data dir /home/sachs/software/q-e/tempdir/inasPBEsol.save/ :
     XML data file

     Final scf calculation at the relaxed structure.
     The G-vectors are recalculated for the final unit cell
     Results may differ from those at the preceding step.

     Parallelization info
     --------------------
     sticks:   dense  smooth     PW     G-vecs:    dense   smooth      PW
     Min         113      75     22                 3934     2142     345
     Max         114      76     23                 3941     2146     346
     Sum        2725    1813    547                94473    51445    8291

     Using Slab Decomposition



     bravais-lattice index     =            2
     lattice parameter (alat)  =      11.4291  a.u.
     unit-cell volume          =     380.9884 (a.u.)^3
     number of atoms/cell      =            2
     number of atomic types    =            2
     number of electrons       =        28.00
     number of Kohn-Sham states=           14
     kinetic-energy cutoff     =     100.0000  Ry
     charge density cutoff     =     600.0000  Ry
     scf convergence threshold =      1.0E-11
     mixing beta               =       0.7000
     number of iterations used =            8  plain     mixing
     press convergence thresh. =      5.0E-01
     Exchange-correlation= PBESOL
                           (   1   4  10   8   0   0   0)

     celldm(1)=  11.429063  celldm(2)=   0.000000  celldm(3)=   0.000000
     celldm(4)=   0.000000  celldm(5)=   0.000000  celldm(6)=   0.000000

     crystal axes: (cart. coord. in units of alat)
               a(1) = (  -0.503443   0.000000   0.503443 )  
               a(2) = (   0.000000   0.503443   0.503443 )  
               a(3) = (  -0.503443   0.503443   0.000000 )  

     reciprocal axes: (cart. coord. in units 2 pi/alat)
               b(1) = ( -0.993162 -0.993162  0.993162 )  
               b(2) = (  0.993162  0.993162  0.993162 )  
               b(3) = ( -0.993162  0.993162 -0.993162 )  


     PseudoPot. # 1 for In read from file:
     /home/sachs/software/q-e/Pseudofolder/nc-sr-04_pbesol_standard_upf/In.upf
     MD5 check sum: 177c8ddcbbe89ff41d61e1e5cdeeb500
     Pseudo is Norm-conserving + core correction, Zval = 13.0
     Generated using ONCVPSP code by D. R. Hamann
     Using radial grid of 1940 points,  6 beta functions with: 
                l(1) =   0
                l(2) =   0
                l(3) =   1
                l(4) =   1
                l(5) =   2
                l(6) =   2

     PseudoPot. # 2 for As read from file:
     /home/sachs/software/q-e/Pseudofolder/nc-sr-04_pbesol_standard_upf/As.upf
     MD5 check sum: 8e1cf9692a75f2b458f16819c50a4a5a
     Pseudo is Norm-conserving + core correction, Zval = 15.0
     Generated using ONCVPSP code by D. R. Hamann
     Using radial grid of 1342 points,  6 beta functions with: 
                l(1) =   0
                l(2) =   0
                l(3) =   1
                l(4) =   1
                l(5) =   2
                l(6) =   2

     atomic species   valence    mass     pseudopotential
     In               13.00   114.81800     In( 1.00)
     As               15.00    74.92100     As( 1.00)

     24 Sym. Ops. (no inversion) found



   Cartesian axes

     site n.     atom                  positions (alat units)
         1        In     tau(   1) = (   0.0000000   0.0000000   0.0000000  )
         2        As     tau(   2) = (  -0.2517213   0.2517213   0.2517213  )

     number of k points=   770

     Number of k-points >= 100: set verbosity='high' to print them.

     Dense  grid:    94473 G-vectors     FFT dimensions: (  64,  64,  64)

     Smooth grid:    51445 G-vectors     FFT dimensions: (  54,  54,  54)

     Estimated max dynamical RAM per process >      54.95 MB

     Estimated total dynamical RAM >       1.29 GB

     Initial potential from superposition of free atoms

     starting charge      27.9963, renormalised to      28.0000
     Starting wfcs are   18 randomized atomic wfcs

     total cpu time spent up to now is     2890.0 secs

     per-process dynamical memory:    60.6 Mb

     Self-consistent Calculation

     iteration #  1     ecut=   100.00 Ry     beta= 0.70
     CG style diagonalization
     c_bands:  1 eigenvalues not converged
     c_bands:  1 eigenvalues not converged
     c_bands:  1 eigenvalues not converged
     c_bands:  1 eigenvalues not converged
     c_bands:  1 eigenvalues not converged
     c_bands:  1 eigenvalues not converged
     c_bands:  1 eigenvalues not converged
     c_bands:  1 eigenvalues not converged
     c_bands:  1 eigenvalues not converged
     c_bands:  1 eigenvalues not converged
     c_bands:  1 eigenvalues not converged
     c_bands:  1 eigenvalues not converged
     c_bands:  1 eigenvalues not converged
     c_bands:  1 eigenvalues not converged
     c_bands:  1 eigenvalues not converged
     c_bands:  1 eigenvalues not converged
     c_bands:  1 eigenvalues not converged
     c_bands:  1 eigenvalues not converged
     c_bands:  1 eigenvalues not converged
     c_bands:  1 eigenvalues not converged
     c_bands:  1 eigenvalues not converged
     c_bands:  1 eigenvalues not converged
     c_bands:  1 eigenvalues not converged
     c_bands:  1 eigenvalues not converged
     c_bands:  1 eigenvalues not converged
     c_bands:  1 eigenvalues not converged
     c_bands:  1 eigenvalues not converged
     c_bands:  1 eigenvalues not converged
     c_bands:  1 eigenvalues not converged
     c_bands:  1 eigenvalues not converged
     c_bands:  1 eigenvalues not converged
     ethr =  1.00E-06,  avg # of iterations =  8.8

     total cpu time spent up to now is     3020.4 secs

     total energy              =    -344.47158502 Ry
     estimated scf accuracy    <       0.06392265 Ry

     iteration #  2     ecut=   100.00 Ry     beta= 0.70
     CG style diagonalization
     ethr =  2.28E-04,  avg # of iterations =  3.9

     total cpu time spent up to now is     3078.1 secs

     total energy              =    -344.48590101 Ry
     estimated scf accuracy    <       0.01718972 Ry

     iteration #  3     ecut=   100.00 Ry     beta= 0.70
     CG style diagonalization
     ethr =  6.14E-05,  avg # of iterations =  3.6

     total cpu time spent up to now is     3130.5 secs

     total energy              =    -344.48989468 Ry
     estimated scf accuracy    <       0.00037301 Ry

     iteration #  4     ecut=   100.00 Ry     beta= 0.70
     CG style diagonalization
     ethr =  1.33E-06,  avg # of iterations =  5.5

     total cpu time spent up to now is     3209.9 secs

     total energy              =    -344.49035920 Ry
     estimated scf accuracy    <       0.00039866 Ry

     iteration #  5     ecut=   100.00 Ry     beta= 0.70
     CG style diagonalization
     ethr =  1.33E-06,  avg # of iterations =  3.3

     total cpu time spent up to now is     3258.9 secs

     total energy              =    -344.49030686 Ry
     estimated scf accuracy    <       0.00009793 Ry

     iteration #  6     ecut=   100.00 Ry     beta= 0.70
     CG style diagonalization
     ethr =  3.50E-07,  avg # of iterations =  4.3

     total cpu time spent up to now is     3322.5 secs

     total energy              =    -344.49035357 Ry
     estimated scf accuracy    <       0.00003149 Ry

     iteration #  7     ecut=   100.00 Ry     beta= 0.70
     CG style diagonalization
     ethr =  1.12E-07,  avg # of iterations =  3.7

     total cpu time spent up to now is     3376.9 secs

     total energy              =    -344.49035857 Ry
     estimated scf accuracy    <       0.00000255 Ry

     iteration #  8     ecut=   100.00 Ry     beta= 0.70
     CG style diagonalization
     ethr =  9.09E-09,  avg # of iterations =  4.6

     total cpu time spent up to now is     3443.4 secs

     total energy              =    -344.49035894 Ry
     estimated scf accuracy    <       0.00000140 Ry

     iteration #  9     ecut=   100.00 Ry     beta= 0.70
     CG style diagonalization
     ethr =  5.01E-09,  avg # of iterations =  3.7

     total cpu time spent up to now is     3497.0 secs

     total energy              =    -344.49035905 Ry
     estimated scf accuracy    <       0.00000020 Ry

     iteration # 10     ecut=   100.00 Ry     beta= 0.70
     CG style diagonalization
     ethr =  7.17E-10,  avg # of iterations =  4.8

     total cpu time spent up to now is     3567.3 secs

     total energy              =    -344.49035914 Ry
     estimated scf accuracy    <       0.00000013 Ry

     iteration # 11     ecut=   100.00 Ry     beta= 0.70
     CG style diagonalization
     ethr =  4.82E-10,  avg # of iterations =  3.6

     total cpu time spent up to now is     3620.5 secs

     total energy              =    -344.49035915 Ry
     estimated scf accuracy    <       0.00000003 Ry

     iteration # 12     ecut=   100.00 Ry     beta= 0.70
     CG style diagonalization
     ethr =  1.13E-10,  avg # of iterations =  4.1

     total cpu time spent up to now is     3680.9 secs

     total energy              =    -344.49035915 Ry
     estimated scf accuracy    <       0.00000003 Ry

     iteration # 13     ecut=   100.00 Ry     beta= 0.70
     CG style diagonalization
     ethr =  1.03E-10,  avg # of iterations =  3.7

     total cpu time spent up to now is     3734.8 secs

     total energy              =    -344.49035915 Ry
     estimated scf accuracy    <          7.1E-09 Ry

     iteration # 14     ecut=   100.00 Ry     beta= 0.70
     CG style diagonalization
     ethr =  2.52E-11,  avg # of iterations =  3.8

     total cpu time spent up to now is     3790.2 secs

     total energy              =    -344.49035915 Ry
     estimated scf accuracy    <          1.1E-09 Ry

     iteration # 15     ecut=   100.00 Ry     beta= 0.70
     CG style diagonalization
     ethr =  4.01E-12,  avg # of iterations =  5.4

     total cpu time spent up to now is     3867.9 secs

     total energy              =    -344.49035915 Ry
     estimated scf accuracy    <          6.0E-09 Ry

     iteration # 16     ecut=   100.00 Ry     beta= 0.70
     CG style diagonalization
     ethr =  4.01E-12,  avg # of iterations =  4.9

     total cpu time spent up to now is     3939.8 secs

     total energy              =    -344.49035915 Ry
     estimated scf accuracy    <          9.5E-11 Ry

     iteration # 17     ecut=   100.00 Ry     beta= 0.70
     CG style diagonalization
     ethr =  3.40E-13,  avg # of iterations =  3.9

     total cpu time spent up to now is     3997.1 secs

     total energy              =    -344.49035915 Ry
     estimated scf accuracy    <          1.7E-11 Ry

     iteration # 18     ecut=   100.00 Ry     beta= 0.70
     CG style diagonalization
     ethr =  1.00E-13,  avg # of iterations =  4.9

     total cpu time spent up to now is     4068.6 secs

     total energy              =    -344.49035915 Ry
     estimated scf accuracy    <          4.9E-11 Ry

     iteration # 19     ecut=   100.00 Ry     beta= 0.70
     CG style diagonalization
     ethr =  1.00E-13,  avg # of iterations =  4.0

     total cpu time spent up to now is     4126.4 secs

     End of self-consistent calculation

     Number of k-points >= 100: set verbosity='high' to print the bands.

     highest occupied level (ev):     7.6656

!    total energy              =    -344.49035915 Ry
     estimated scf accuracy    <          3.0E-12 Ry

     The total energy is the sum of the following terms:
     one-electron contribution =    -179.05224321 Ry
     hartree contribution      =     105.40282604 Ry
     xc contribution           =     -86.68767023 Ry
     ewald contribution        =    -184.15327174 Ry

     convergence has been achieved in  19 iterations

     Forces acting on atoms (cartesian axes, Ry/au):

     atom    1 type  1   force =     0.00000000    0.00000000    0.00000000
     atom    2 type  2   force =    -0.00000000    0.00000000   -0.00000000

     Total force =     0.000000     Total SCF correction =     0.000000


     Computing stress (Cartesian axis) and pressure

          total   stress  (Ry/bohr**3)                   (kbar)     P=        0.09
   0.00000060   0.00000000   0.00000000            0.09        0.00        0.00
   0.00000000   0.00000060   0.00000000            0.00        0.09        0.00
   0.00000000   0.00000000   0.00000060            0.00        0.00        0.09


     Writing all to output data dir /home/sachs/software/q-e/tempdir/inasPBEsol.save/ :
     XML data file, charge density, pseudopotentials, collected wavefunctions

     init_run     :     33.05s CPU     33.70s WALL (       2 calls)
     electrons    :   3880.14s CPU   3982.22s WALL (       5 calls)
     update_pot   :      0.09s CPU      0.12s WALL (       3 calls)
     forces       :     18.75s CPU     18.84s WALL (       5 calls)
     stress       :     76.16s CPU     76.40s WALL (       5 calls)

     Called by init_run:
     wfcinit      :     31.87s CPU     32.44s WALL (       2 calls)
     potinit      :      0.22s CPU      0.28s WALL (       2 calls)
     hinit0       :      0.36s CPU      0.37s WALL (       2 calls)

     Called by electrons:
     c_bands      :   3549.53s CPU   3646.27s WALL (      67 calls)
     sum_band     :    328.78s CPU    333.59s WALL (      67 calls)
     v_of_rho     :      1.48s CPU      1.64s WALL (      68 calls)
     mix_rho      :      0.25s CPU      0.28s WALL (      67 calls)

     Called by c_bands:
     init_us_2    :     46.79s CPU     48.50s WALL (  112420 calls)
     ccgdiagg     :   2870.08s CPU   2955.21s WALL (   51590 calls)
     wfcrot       :    668.05s CPU    678.07s WALL (   46200 calls)

     Called by *cgdiagg:
     h_psi        :   2843.19s CPU   2920.49s WALL ( 2299680 calls)

     Called by h_psi:
     h_psi:calbec :    296.70s CPU    303.53s WALL ( 2299680 calls)
     vloc_psi     :   2344.44s CPU   2411.05s WALL ( 2299680 calls)
                                        0.00s GPU  ( 2299680 calls)
     add_vuspsi   :    173.47s CPU    177.28s WALL ( 2299680 calls)
     hs_1psi      :   2255.71s CPU   2322.88s WALL ( 2253480 calls)
     s_1psi       :    209.59s CPU    213.91s WALL ( 2253480 calls)

     General routines
     calbec       :    547.96s CPU    561.40s WALL ( 4618610 calls)
     fft          :      1.04s CPU      1.26s WALL (     933 calls)
     ffts         :      0.22s CPU      0.22s WALL (     135 calls)
     fftw         :   2470.42s CPU   2536.75s WALL ( 6535140 calls)
     interpolate  :      0.25s CPU      0.26s WALL (      68 calls)

     Parallel routines

     PWSCF        :      1h 7m CPU      1h 9m WALL


   This run was terminated on:  16:31:21  24Feb2026            

=------------------------------------------------------------------------------=
   JOB DONE.
=------------------------------------------------------------------------------=
