
     Program PWSCF v.7.5 starts on 26Jan2026 at 22:47:54 

     This program is part of the open-source Quantum ESPRESSO suite
     for quantum simulation of materials; please cite
         "P. Giannozzi et al., J. Phys.:Condens. Matter 21 395502 (2009);
         "P. Giannozzi et al., J. Phys.:Condens. Matter 29 465901 (2017);
         "P. Giannozzi et al., J. Chem. Phys. 152 154105 (2020);
          URL http://www.quantum-espresso.org", 
     in publications or presentations arising from this work. More details at
     http://www.quantum-espresso.org/quote

     Parallel version (MPI), running on     1 processors

     MPI processes distributed on     1 nodes
     25445 MiB available memory on the printing compute node when the environment starts

     Waiting for input...
     Reading input from standard input

     Current dimensions of program PWSCF are:
     Max number of different atomic species (ntypx) = 10
     Max number of k-points (npk) =  40000
     Max angular momentum in pseudopotentials (lmaxx) =  4
     file In.pbe-dn-rrkjus_psl.0.2.2.UPF: wavefunction(s)  5S renormalized

     Subspace diagonalization in iterative solution of the eigenvalue problem:
     a serial algorithm will be used


     G-vector sticks info
     --------------------
     sticks:   dense  smooth     PW     G-vecs:    dense   smooth      PW
     Sum         955     745    223                19579    13371    2229

     Using Slab Decomposition



     bravais-lattice index     =            2
     lattice parameter (alat)  =      11.4291  a.u.
     unit-cell volume          =     373.2261 (a.u.)^3
     number of atoms/cell      =            2
     number of atomic types    =            2
     number of electrons       =        18.00
     number of Kohn-Sham states=            9
     kinetic-energy cutoff     =      41.1111  Ry
     charge density cutoff     =     212.0000  Ry
     scf convergence threshold =      1.0E-06
     mixing beta               =       0.7000
     number of iterations used =            8  plain     mixing
     Exchange-correlation= PBE
                           (   1   4   3   4   0   0   0)

     celldm(1)=  11.429064  celldm(2)=   0.000000  celldm(3)=   0.000000
     celldm(4)=   0.000000  celldm(5)=   0.000000  celldm(6)=   0.000000

     crystal axes: (cart. coord. in units of alat)
               a(1) = (  -0.500000   0.000000   0.500000 )  
               a(2) = (   0.000000   0.500000   0.500000 )  
               a(3) = (  -0.500000   0.500000   0.000000 )  

     reciprocal axes: (cart. coord. in units 2 pi/alat)
               b(1) = ( -1.000000 -1.000000  1.000000 )  
               b(2) = (  1.000000  1.000000  1.000000 )  
               b(3) = ( -1.000000  1.000000 -1.000000 )  


     PseudoPot. # 1 for In read from file:
     /home/nico-sachs/source/q-e/SSSP_1.3.0_PBE_efficiency/In.pbe-dn-rrkjus_psl.0.2.2.UPF
     MD5 check sum: 25e7c42c3b55b68f4bf926be2e7201a4
     Pseudo is Ultrasoft + core correction, Zval = 13.0
     Generated using "atomic" code by A. Dal Corso  v.5.0.99 svn rev. 10869
     Using radial grid of 1241 points,  6 beta functions with: 
                l(1) =   0
                l(2) =   0
                l(3) =   1
                l(4) =   1
                l(5) =   2
                l(6) =   2
     Q(r) pseudized with 0 coefficients 


     PseudoPot. # 2 for As read from file:
     /home/nico-sachs/source/q-e/SSSP_1.3.0_PBE_efficiency/As.pbe-n-rrkjus_psl.0.2.UPF
     MD5 check sum: 767315de957beeeb34f87d97bf945c8f
     Pseudo is Ultrasoft + core correction, Zval =  5.0
     Generated using "atomic" code by A. Dal Corso  v.5.0.99 svn rev. 10869
     Using radial grid of 1209 points,  4 beta functions with: 
                l(1) =   0
                l(2) =   0
                l(3) =   1
                l(4) =   1
     Q(r) pseudized with 0 coefficients 


     atomic species   valence    mass     pseudopotential
     In               13.00   114.81800     In( 1.00)
     As                5.00    74.92100     As( 1.00)

     24 Sym. Ops. (no inversion) found



   Cartesian axes

     site n.     atom                  positions (alat units)
         1        In     tau(   1) = (   0.0000000   0.0000000   0.0000000  )
         2        As     tau(   2) = (  -0.2500000   0.2500000   0.2500000  )

     number of k points=    60
                       cart. coord. in units 2pi/alat
        k(    1) = (   0.0625000   0.0625000   0.0625000), wk =   0.0078125
        k(    2) = (   0.0625000   0.0625000   0.1875000), wk =   0.0234375
        k(    3) = (   0.0625000   0.0625000   0.3125000), wk =   0.0234375
        k(    4) = (   0.0625000   0.0625000   0.4375000), wk =   0.0234375
        k(    5) = (   0.0625000   0.0625000   0.5625000), wk =   0.0234375
        k(    6) = (   0.0625000   0.0625000   0.6875000), wk =   0.0234375
        k(    7) = (   0.0625000   0.0625000   0.8125000), wk =   0.0234375
        k(    8) = (   0.0625000   0.0625000   0.9375000), wk =   0.0234375
        k(    9) = (   0.0625000   0.1875000   0.1875000), wk =   0.0234375
        k(   10) = (   0.0625000   0.1875000   0.3125000), wk =   0.0468750
        k(   11) = (   0.0625000   0.1875000   0.4375000), wk =   0.0468750
        k(   12) = (   0.0625000   0.1875000   0.5625000), wk =   0.0468750
        k(   13) = (   0.0625000   0.1875000   0.6875000), wk =   0.0468750
        k(   14) = (   0.0625000   0.1875000   0.8125000), wk =   0.0468750
        k(   15) = (   0.0625000   0.1875000   0.9375000), wk =   0.0468750
        k(   16) = (   0.0625000   0.3125000   0.3125000), wk =   0.0234375
        k(   17) = (   0.0625000   0.3125000   0.4375000), wk =   0.0468750
        k(   18) = (   0.0625000   0.3125000   0.5625000), wk =   0.0468750
        k(   19) = (   0.0625000   0.3125000   0.6875000), wk =   0.0468750
        k(   20) = (   0.0625000   0.3125000   0.8125000), wk =   0.0468750
        k(   21) = (   0.0625000   0.3125000   0.9375000), wk =   0.0468750
        k(   22) = (   0.0625000   0.4375000   0.4375000), wk =   0.0234375
        k(   23) = (   0.0625000   0.4375000   0.5625000), wk =   0.0468750
        k(   24) = (   0.0625000   0.4375000   0.6875000), wk =   0.0468750
        k(   25) = (   0.0625000   0.4375000   0.8125000), wk =   0.0468750
        k(   26) = (   0.0625000   0.4375000   0.9375000), wk =   0.0468750
        k(   27) = (   0.0625000   0.5625000   0.5625000), wk =   0.0234375
        k(   28) = (   0.0625000   0.5625000   0.6875000), wk =   0.0468750
        k(   29) = (   0.0625000   0.5625000   0.8125000), wk =   0.0468750
        k(   30) = (   0.0625000   0.6875000   0.6875000), wk =   0.0234375
        k(   31) = (   0.0625000   0.6875000   0.8125000), wk =   0.0468750
        k(   32) = (   0.0625000   0.8125000   0.8125000), wk =   0.0234375
        k(   33) = (   0.1875000   0.1875000   0.1875000), wk =   0.0078125
        k(   34) = (   0.1875000   0.1875000   0.3125000), wk =   0.0234375
        k(   35) = (   0.1875000   0.1875000   0.4375000), wk =   0.0234375
        k(   36) = (   0.1875000   0.1875000   0.5625000), wk =   0.0234375
        k(   37) = (   0.1875000   0.1875000   0.6875000), wk =   0.0234375
        k(   38) = (   0.1875000   0.1875000   0.8125000), wk =   0.0234375
        k(   39) = (   0.1875000   0.3125000   0.3125000), wk =   0.0234375
        k(   40) = (   0.1875000   0.3125000   0.4375000), wk =   0.0468750
        k(   41) = (   0.1875000   0.3125000   0.5625000), wk =   0.0468750
        k(   42) = (   0.1875000   0.3125000   0.6875000), wk =   0.0468750
        k(   43) = (   0.1875000   0.3125000   0.8125000), wk =   0.0468750
        k(   44) = (   0.1875000   0.4375000   0.4375000), wk =   0.0234375
        k(   45) = (   0.1875000   0.4375000   0.5625000), wk =   0.0468750
        k(   46) = (   0.1875000   0.4375000   0.6875000), wk =   0.0468750
        k(   47) = (   0.1875000   0.4375000   0.8125000), wk =   0.0468750
        k(   48) = (   0.1875000   0.5625000   0.5625000), wk =   0.0234375
        k(   49) = (   0.1875000   0.5625000   0.6875000), wk =   0.0468750
        k(   50) = (   0.1875000   0.6875000   0.6875000), wk =   0.0234375
        k(   51) = (   0.3125000   0.3125000   0.3125000), wk =   0.0078125
        k(   52) = (   0.3125000   0.3125000   0.4375000), wk =   0.0234375
        k(   53) = (   0.3125000   0.3125000   0.5625000), wk =   0.0234375
        k(   54) = (   0.3125000   0.3125000   0.6875000), wk =   0.0234375
        k(   55) = (   0.3125000   0.4375000   0.4375000), wk =   0.0234375
        k(   56) = (   0.3125000   0.4375000   0.5625000), wk =   0.0468750
        k(   57) = (   0.3125000   0.4375000   0.6875000), wk =   0.0468750
        k(   58) = (   0.3125000   0.5625000   0.5625000), wk =   0.0234375
        k(   59) = (   0.4375000   0.4375000   0.4375000), wk =   0.0078125
        k(   60) = (   0.4375000   0.4375000   0.5625000), wk =   0.0234375

     Dense  grid:    19579 G-vectors     FFT dimensions: (  40,  40,  40)

     Smooth grid:    13371 G-vectors     FFT dimensions: (  36,  36,  36)

     Estimated max dynamical RAM per process >      90.05 MB

     Check: negative core charge=   -0.000002

     Initial potential from superposition of free atoms

     starting charge      17.9960, renormalised to      18.0000
     Starting wfcs are   13 randomized atomic wfcs

     total cpu time spent up to now is        2.8 secs

     Self-consistent Calculation

     iteration #  1     ecut=    41.11 Ry     beta= 0.70
     CG style diagonalization
     ethr =  1.00E-02,  avg # of iterations =  2.0

     Threshold (ethr) on eigenvalues was too large:
     Diagonalizing with lowered threshold

     CG style diagonalization
     ethr =  3.57E-04,  avg # of iterations =  2.9

     total cpu time spent up to now is        8.0 secs

     total energy              =    -163.05199264 Ry
     estimated scf accuracy    <       0.06787679 Ry

     iteration #  2     ecut=    41.11 Ry     beta= 0.70
     CG style diagonalization
     ethr =  3.77E-04,  avg # of iterations =  3.6

     total cpu time spent up to now is       11.5 secs

     total energy              =    -163.06722020 Ry
     estimated scf accuracy    <       0.01614406 Ry

     iteration #  3     ecut=    41.11 Ry     beta= 0.70
     CG style diagonalization
     ethr =  8.97E-05,  avg # of iterations =  3.6

     total cpu time spent up to now is       14.9 secs

     total energy              =    -163.07176588 Ry
     estimated scf accuracy    <       0.00042382 Ry

     iteration #  4     ecut=    41.11 Ry     beta= 0.70
     CG style diagonalization
     ethr =  2.35E-06,  avg # of iterations =  4.9

     total cpu time spent up to now is       19.5 secs

     total energy              =    -163.07210294 Ry
     estimated scf accuracy    <       0.00005612 Ry

     iteration #  5     ecut=    41.11 Ry     beta= 0.70
     CG style diagonalization
     ethr =  3.12E-07,  avg # of iterations =  4.1

     total cpu time spent up to now is       23.3 secs

     total energy              =    -163.07210594 Ry
     estimated scf accuracy    <       0.00002297 Ry

     iteration #  6     ecut=    41.11 Ry     beta= 0.70
     CG style diagonalization
     ethr =  1.28E-07,  avg # of iterations =  3.8

     total cpu time spent up to now is       26.9 secs

     total energy              =    -163.07210981 Ry
     estimated scf accuracy    <       0.00000119 Ry

     iteration #  7     ecut=    41.11 Ry     beta= 0.70
     CG style diagonalization
     ethr =  6.61E-09,  avg # of iterations =  6.0

     total cpu time spent up to now is       32.3 secs

     End of self-consistent calculation

          k = 0.0625 0.0625 0.0625 (  1663 PWs)   bands (ev):

    -7.8812  -7.8745  -7.8745  -7.7515  -7.7515  -5.2857   5.5676   6.4796
     6.4796

          k = 0.0625 0.0625 0.1875 (  1678 PWs)   bands (ev):

    -7.8967  -7.8698  -7.8691  -7.7538  -7.7497  -5.1787   4.8118   6.2036
     6.2592

          k = 0.0625 0.0625 0.3125 (  1666 PWs)   bands (ev):

    -7.9245  -7.8593  -7.8585  -7.7578  -7.7463  -4.9719   3.9784   5.7822
     5.7974

          k = 0.0625 0.0625 0.4375 (  1656 PWs)   bands (ev):

    -7.9581  -7.8452  -7.8443  -7.7641  -7.7419  -4.6790   3.1566   5.2994
     5.3338

          k = 0.0625 0.0625 0.5625 (  1667 PWs)   bands (ev):

    -7.9915  -7.8299  -7.8290  -7.7717  -7.7372  -4.3216   2.3733   4.8484
     4.9268

          k = 0.0625 0.0625 0.6875 (  1666 PWs)   bands (ev):

    -8.0204  -7.8154  -7.8145  -7.7788  -7.7329  -3.9348   1.6630   4.4857
     4.5984

          k = 0.0625 0.0625 0.8125 (  1660 PWs)   bands (ev):

    -8.0411  -7.8043  -7.8029  -7.7840  -7.7298  -3.5793   1.0885   4.2340
     4.3697

          k = 0.0625 0.0625 0.9375 (  1667 PWs)   bands (ev):

    -8.0521  -7.7986  -7.7968  -7.7869  -7.7282  -3.3525   0.7507   4.1054
     4.2527

          k = 0.0625 0.1875 0.1875 (  1669 PWs)   bands (ev):

    -7.9069  -7.8685  -7.8647  -7.7533  -7.7498  -5.0749   4.2316   5.9305
     6.3718

          k = 0.0625 0.1875 0.3125 (  1660 PWs)   bands (ev):

    -7.9301  -7.8605  -7.8563  -7.7561  -7.7468  -4.8744   3.5294   5.4863
     6.0690

          k = 0.0625 0.1875 0.4375 (  1660 PWs)   bands (ev):

    -7.9602  -7.8479  -7.8445  -7.7615  -7.7425  -4.5914   2.8281   5.0149
     5.5639

          k = 0.0625 0.1875 0.5625 (  1665 PWs)   bands (ev):

    -7.9907  -7.8343  -7.8303  -7.7682  -7.7381  -4.2481   2.1610   4.5840
     5.0585

          k = 0.0625 0.1875 0.6875 (  1666 PWs)   bands (ev):

    -8.0171  -7.8217  -7.8162  -7.7744  -7.7344  -3.8802   1.5565   4.2291
     4.6398

          k = 0.0625 0.1875 0.8125 (  1666 PWs)   bands (ev):

    -8.0363  -7.8117  -7.8052  -7.7791  -7.7321  -3.5471   1.0668   3.9742
     4.3499

          k = 0.0625 0.1875 0.9375 (  1662 PWs)   bands (ev):

    -8.0463  -7.8060  -7.7995  -7.7813  -7.7310  -3.3381   0.7791   3.8402
     4.2038

          k = 0.0625 0.3125 0.3125 (  1654 PWs)   bands (ev):

    -7.9446  -7.8573  -7.8518  -7.7546  -7.7468  -4.6869   2.9486   5.0402
     6.1230

          k = 0.0625 0.3125 0.4375 (  1661 PWs)   bands (ev):

    -7.9668  -7.8485  -7.8442  -7.7573  -7.7442  -4.4243   2.3703   4.5827
     5.7799

          k = 0.0625 0.3125 0.5625 (  1660 PWs)   bands (ev):

    -7.9912  -7.8390  -7.8316  -7.7623  -7.7406  -4.1102   1.8389   4.1829
     5.2476

          k = 0.0625 0.3125 0.6875 (  1662 PWs)   bands (ev):

    -8.0130  -7.8302  -7.8180  -7.7675  -7.7379  -3.7812   1.3794   3.8758
     4.7136

          k = 0.0625 0.3125 0.8125 (  1662 PWs)   bands (ev):

    -8.0290  -7.8223  -7.8073  -7.7717  -7.7364  -3.4926   1.0233   3.6791
     4.2874

          k = 0.0625 0.3125 0.9375 (  1661 PWs)   bands (ev):

    -8.0375  -7.8177  -7.8017  -7.7736  -7.7360  -3.3176   0.8211   3.5922
     4.0447

          k = 0.0625 0.4375 0.4375 (  1657 PWs)   bands (ev):

    -7.9795  -7.8429  -7.8424  -7.7539  -7.7463  -4.1941   1.9106   4.1503
     5.7275

          k = 0.0625 0.4375 0.5625 (  1660 PWs)   bands (ev):

    -7.9959  -7.8392  -7.8317  -7.7559  -7.7452  -3.9262   1.5063   3.7896
     5.3556

          k = 0.0625 0.4375 0.6875 (  1656 PWs)   bands (ev):

    -8.0118  -7.8345  -7.8188  -7.7606  -7.7428  -3.6568   1.1857   3.5410
     4.8192

          k = 0.0625 0.4375 0.8125 (  1667 PWs)   bands (ev):

    -8.0242  -7.8299  -7.8084  -7.7651  -7.7415  -3.4324   0.9648   3.4299
     4.2938

          k = 0.0625 0.4375 0.9375 (  1657 PWs)   bands (ev):

    -8.0307  -7.8265  -7.8028  -7.7672  -7.7409  -3.3029   0.8524   3.4501
     3.9205

          k = 0.0625 0.5625 0.5625 (  1656 PWs)   bands (ev):

    -8.0052  -7.8353  -7.8275  -7.7520  -7.7494  -3.7224   1.2242   3.4808
     5.2503

          k = 0.0625 0.5625 0.6875 (  1660 PWs)   bands (ev):

    -8.0163  -7.8320  -7.8177  -7.7585  -7.7452  -3.5306   1.0222   3.3044
     4.8862

          k = 0.0625 0.5625 0.8125 (  1666 PWs)   bands (ev):

    -8.0256  -7.8288  -7.8081  -7.7643  -7.7424  -3.3828   0.9034   3.2940
     4.3831

          k = 0.0625 0.6875 0.6875 (  1664 PWs)   bands (ev):

    -8.0246  -7.8255  -7.8134  -7.7640  -7.7418  -3.4249   0.9107   3.2200
     4.7927

          k = 0.0625 0.6875 0.8125 (  1659 PWs)   bands (ev):

    -8.0326  -7.8204  -7.8063  -7.7702  -7.7381  -3.3528   0.8481   3.3192
     4.4769

          k = 0.0625 0.8125 0.8125 (  1664 PWs)   bands (ev):

    -8.0410  -7.8113  -7.8025  -7.7773  -7.7336  -3.3406   0.8043   3.5157
     4.4415

          k = 0.1875 0.1875 0.1875 (  1666 PWs)   bands (ev):

    -7.9162  -7.8644  -7.8644  -7.7511  -7.7511  -4.9746   3.7201   6.1547
     6.1547

          k = 0.1875 0.1875 0.3125 (  1656 PWs)   bands (ev):

    -7.9365  -7.8591  -7.8563  -7.7539  -7.7471  -4.7812   3.0906   5.8058
     5.8915

          k = 0.1875 0.1875 0.4375 (  1659 PWs)   bands (ev):

    -7.9632  -7.8492  -7.8453  -7.7587  -7.7426  -4.5095   2.4760   5.2975
     5.4181

          k = 0.1875 0.1875 0.5625 (  1659 PWs)   bands (ev):

    -7.9905  -7.8372  -7.8324  -7.7646  -7.7384  -4.1824   1.9123   4.6693
     5.0559

          k = 0.1875 0.1875 0.6875 (  1658 PWs)   bands (ev):

    -8.0144  -7.8255  -7.8195  -7.7703  -7.7354  -3.8366   1.4193   4.1231
     4.7584

          k = 0.1875 0.1875 0.8125 (  1666 PWs)   bands (ev):

    -8.0319  -7.8163  -7.8088  -7.7749  -7.7340  -3.5294   1.0298   3.7248
     4.5492

          k = 0.1875 0.3125 0.3125 (  1654 PWs)   bands (ev):

    -7.9505  -7.8558  -7.8526  -7.7520  -7.7468  -4.6026   2.5395   5.4712
     6.0030

          k = 0.1875 0.3125 0.4375 (  1659 PWs)   bands (ev):

    -7.9704  -7.8491  -7.8453  -7.7544  -7.7436  -4.3543   2.0164   5.0147
     5.6911

          k = 0.1875 0.3125 0.5625 (  1654 PWs)   bands (ev):

    -7.9918  -7.8408  -7.8344  -7.7588  -7.7401  -4.0613   1.5684   4.5087
     5.2362

          k = 0.1875 0.3125 0.6875 (  1659 PWs)   bands (ev):

    -8.0110  -7.8323  -7.8224  -7.7638  -7.7381  -3.7605   1.2165   3.9959
     4.8559

          k = 0.1875 0.3125 0.8125 (  1660 PWs)   bands (ev):

    -8.0251  -7.8249  -7.8121  -7.7680  -7.7377  -3.5040   0.9732   3.5660
     4.6024

          k = 0.1875 0.4375 0.4375 (  1652 PWs)   bands (ev):

    -7.9820  -7.8444  -7.8437  -7.7509  -7.7450  -4.1436   1.5892   4.6189
     5.7039

          k = 0.1875 0.4375 0.5625 (  1659 PWs)   bands (ev):

    -7.9963  -7.8409  -7.8349  -7.7528  -7.7438  -3.9041   1.2535   4.2166
     5.3776

          k = 0.1875 0.4375 0.6875 (  1659 PWs)   bands (ev):

    -8.0098  -7.8365  -7.8237  -7.7573  -7.7422  -3.6714   1.0347   3.8363
     4.9353

          k = 0.1875 0.4375 0.8125 (  1665 PWs)   bands (ev):

    -8.0201  -7.8320  -7.8138  -7.7617  -7.7419  -3.4858   0.9304   3.5047
     4.5732

          k = 0.1875 0.5625 0.5625 (  1659 PWs)   bands (ev):

    -8.0040  -7.8377  -7.8316  -7.7499  -7.7468  -3.7378   1.0333   3.9182
     5.2956

          k = 0.1875 0.5625 0.6875 (  1662 PWs)   bands (ev):

    -8.0128  -7.8348  -7.8229  -7.7560  -7.7437  -3.5909   0.9319   3.6705
     4.9755

          k = 0.1875 0.6875 0.6875 (  1666 PWs)   bands (ev):

    -8.0189  -7.8294  -7.8190  -7.7618  -7.7405  -3.5344   0.9222   3.5620
     4.8787

          k = 0.3125 0.3125 0.3125 (  1643 PWs)   bands (ev):

    -7.9620  -7.8520  -7.8520  -7.7476  -7.7476  -4.4426   2.0350   5.7908
     5.7908

          k = 0.3125 0.3125 0.4375 (  1655 PWs)   bands (ev):

    -7.9773  -7.8487  -7.8462  -7.7500  -7.7433  -4.2244   1.5814   5.4867
     5.5309

          k = 0.3125 0.3125 0.5625 (  1664 PWs)   bands (ev):

    -7.9937  -7.8430  -7.8378  -7.7536  -7.7404  -3.9749   1.2331   4.8278
     5.2691

          k = 0.3125 0.3125 0.6875 (  1663 PWs)   bands (ev):

    -8.0082  -7.8358  -7.8280  -7.7578  -7.7396  -3.7306   1.0144   4.1387
     5.0429

          k = 0.3125 0.4375 0.4375 (  1661 PWs)   bands (ev):

    -7.9868  -7.8459  -7.8454  -7.7468  -7.7437  -4.0543   1.2129   5.2301
     5.6533

          k = 0.3125 0.4375 0.5625 (  1659 PWs)   bands (ev):

    -7.9969  -7.8430  -7.8395  -7.7483  -7.7424  -3.8720   0.9729   4.8035
     5.4145

          k = 0.3125 0.4375 0.6875 (  1663 PWs)   bands (ev):

    -8.0061  -7.8391  -7.8311  -7.7521  -7.7422  -3.7090   0.8856   4.2325
     5.1529

          k = 0.3125 0.5625 0.5625 (  1663 PWs)   bands (ev):

    -8.0015  -7.8412  -7.8375  -7.7470  -7.7438  -3.7772   0.8519   4.5737
     5.3768

          k = 0.4375 0.4375 0.4375 (  1673 PWs)   bands (ev):

    -7.9924  -7.8459  -7.8459  -7.7434  -7.7434  -3.9475   0.9308   5.5748
     5.5748

          k = 0.4375 0.4375 0.5625 (  1666 PWs)   bands (ev):

    -7.9975  -7.8443  -7.8427  -7.7445  -7.7424  -3.8486   0.8052   5.2409
     5.4768

     highest occupied level (ev):     6.4796

!    total energy              =    -163.07211135 Ry
     estimated scf accuracy    <       0.00000021 Ry

     The total energy is the sum of the following terms:
     one-electron contribution =     -63.89534609 Ry
     hartree contribution      =      44.67558705 Ry
     xc contribution           =     -56.90604127 Ry
     ewald contribution        =     -86.94631103 Ry

     convergence has been achieved in   7 iterations

     Forces acting on atoms (cartesian axes, Ry/au):

     atom    1 type  1   force =     0.00000000   -0.00000000    0.00000000
     atom    2 type  2   force =     0.00000000    0.00000000    0.00000000

     Total force =     0.000000     Total SCF correction =     0.000000


     Computing stress (Cartesian axis) and pressure

          total   stress  (Ry/bohr**3)                   (kbar)     P=       35.42
   0.00024075   0.00000000   0.00000000           35.42        0.00        0.00
   0.00000000   0.00024075   0.00000000            0.00       35.42        0.00
   0.00000000  -0.00000000   0.00024075            0.00       -0.00       35.42


     Writing all to output data dir /home/nico-sachs/source/q-e/tempdir/inas.save/ :
     XML data file, charge density, pseudopotentials, collected wavefunctions

     init_run     :      2.49s CPU      2.55s WALL (       1 calls)
     electrons    :     28.65s CPU     29.51s WALL (       1 calls)
     forces       :      0.43s CPU      0.47s WALL (       1 calls)
     stress       :      2.14s CPU      2.22s WALL (       1 calls)

     Called by init_run:
     wfcinit      :      1.28s CPU      1.29s WALL (       1 calls)
     potinit      :      0.28s CPU      0.29s WALL (       1 calls)
     hinit0       :      0.83s CPU      0.83s WALL (       1 calls)

     Called by electrons:
     c_bands      :     24.73s CPU     25.12s WALL (       8 calls)
     sum_band     :      3.13s CPU      3.40s WALL (       8 calls)
     v_of_rho     :      0.22s CPU      0.23s WALL (       8 calls)
     newd         :      0.65s CPU      0.87s WALL (       8 calls)
     mix_rho      :      0.02s CPU      0.02s WALL (       8 calls)

     Called by c_bands:
     init_us_2    :      0.69s CPU      0.70s WALL (    1140 calls)
     ccgdiagg     :     20.42s CPU     20.78s WALL (     480 calls)
     wfcrot       :      5.12s CPU      5.15s WALL (     420 calls)

     Called by *cgdiagg:
     h_psi        :     18.01s CPU     18.28s WALL (   13867 calls)
     s_psi        :      3.37s CPU      3.43s WALL (   27314 calls)

     Called by h_psi:
     h_psi:calbec :      2.43s CPU      2.46s WALL (   13867 calls)
     vloc_psi     :     13.51s CPU     13.74s WALL (   13867 calls)
                                        0.00s GPU  (   13867 calls)
     add_vuspsi   :      1.91s CPU      1.93s WALL (   13867 calls)
     hs_1psi      :     15.46s CPU     15.72s WALL (   13447 calls)
     s_1psi       :      3.54s CPU      3.60s WALL (   13447 calls)

     General routines
     calbec       :      5.74s CPU      5.81s WALL (   28814 calls)
     fft          :      0.32s CPU      0.32s WALL (     128 calls)
     ffts         :      0.20s CPU      0.20s WALL (      16 calls)
     fftw         :     13.00s CPU     13.20s WALL (   39254 calls)
     interpolate  :      0.21s CPU      0.21s WALL (       8 calls)

     Parallel routines

     PWSCF        :     33.96s CPU     35.04s WALL


   This run was terminated on:  22:48:29  26Jan2026            

=------------------------------------------------------------------------------=
   JOB DONE.
=------------------------------------------------------------------------------=
