
     Program PWSCF v.7.5 starts on 26Jan2026 at 22:52:39 

     This program is part of the open-source Quantum ESPRESSO suite
     for quantum simulation of materials; please cite
         "P. Giannozzi et al., J. Phys.:Condens. Matter 21 395502 (2009);
         "P. Giannozzi et al., J. Phys.:Condens. Matter 29 465901 (2017);
         "P. Giannozzi et al., J. Chem. Phys. 152 154105 (2020);
          URL http://www.quantum-espresso.org", 
     in publications or presentations arising from this work. More details at
     http://www.quantum-espresso.org/quote

     Parallel version (MPI), running on     1 processors

     MPI processes distributed on     1 nodes
     25452 MiB available memory on the printing compute node when the environment starts

     Waiting for input...
     Reading input from standard input

     Current dimensions of program PWSCF are:
     Max number of different atomic species (ntypx) = 10
     Max number of k-points (npk) =  40000
     Max angular momentum in pseudopotentials (lmaxx) =  4
     file In.pbe-dn-rrkjus_psl.0.2.2.UPF: wavefunction(s)  5S renormalized

     Subspace diagonalization in iterative solution of the eigenvalue problem:
     a serial algorithm will be used


     G-vector sticks info
     --------------------
     sticks:   dense  smooth     PW     G-vecs:    dense   smooth      PW
     Sum         955     955    283                19579    19027    3119

     Using Slab Decomposition



     bravais-lattice index     =            2
     lattice parameter (alat)  =      11.4291  a.u.
     unit-cell volume          =     373.2261 (a.u.)^3
     number of atoms/cell      =            2
     number of atomic types    =            2
     number of electrons       =        18.00
     number of Kohn-Sham states=            9
     kinetic-energy cutoff     =      52.2222  Ry
     charge density cutoff     =     212.0000  Ry
     scf convergence threshold =      1.0E-06
     mixing beta               =       0.7000
     number of iterations used =            8  plain     mixing
     Exchange-correlation= PBE
                           (   1   4   3   4   0   0   0)

     celldm(1)=  11.429064  celldm(2)=   0.000000  celldm(3)=   0.000000
     celldm(4)=   0.000000  celldm(5)=   0.000000  celldm(6)=   0.000000

     crystal axes: (cart. coord. in units of alat)
               a(1) = (  -0.500000   0.000000   0.500000 )  
               a(2) = (   0.000000   0.500000   0.500000 )  
               a(3) = (  -0.500000   0.500000   0.000000 )  

     reciprocal axes: (cart. coord. in units 2 pi/alat)
               b(1) = ( -1.000000 -1.000000  1.000000 )  
               b(2) = (  1.000000  1.000000  1.000000 )  
               b(3) = ( -1.000000  1.000000 -1.000000 )  


     PseudoPot. # 1 for In read from file:
     /home/nico-sachs/source/q-e/SSSP_1.3.0_PBE_efficiency/In.pbe-dn-rrkjus_psl.0.2.2.UPF
     MD5 check sum: 25e7c42c3b55b68f4bf926be2e7201a4
     Pseudo is Ultrasoft + core correction, Zval = 13.0
     Generated using "atomic" code by A. Dal Corso  v.5.0.99 svn rev. 10869
     Using radial grid of 1241 points,  6 beta functions with: 
                l(1) =   0
                l(2) =   0
                l(3) =   1
                l(4) =   1
                l(5) =   2
                l(6) =   2
     Q(r) pseudized with 0 coefficients 


     PseudoPot. # 2 for As read from file:
     /home/nico-sachs/source/q-e/SSSP_1.3.0_PBE_efficiency/As.pbe-n-rrkjus_psl.0.2.UPF
     MD5 check sum: 767315de957beeeb34f87d97bf945c8f
     Pseudo is Ultrasoft + core correction, Zval =  5.0
     Generated using "atomic" code by A. Dal Corso  v.5.0.99 svn rev. 10869
     Using radial grid of 1209 points,  4 beta functions with: 
                l(1) =   0
                l(2) =   0
                l(3) =   1
                l(4) =   1
     Q(r) pseudized with 0 coefficients 


     atomic species   valence    mass     pseudopotential
     In               13.00   114.81800     In( 1.00)
     As                5.00    74.92100     As( 1.00)

     24 Sym. Ops. (no inversion) found



   Cartesian axes

     site n.     atom                  positions (alat units)
         1        In     tau(   1) = (   0.0000000   0.0000000   0.0000000  )
         2        As     tau(   2) = (  -0.2500000   0.2500000   0.2500000  )

     number of k points=    60
                       cart. coord. in units 2pi/alat
        k(    1) = (   0.0625000   0.0625000   0.0625000), wk =   0.0078125
        k(    2) = (   0.0625000   0.0625000   0.1875000), wk =   0.0234375
        k(    3) = (   0.0625000   0.0625000   0.3125000), wk =   0.0234375
        k(    4) = (   0.0625000   0.0625000   0.4375000), wk =   0.0234375
        k(    5) = (   0.0625000   0.0625000   0.5625000), wk =   0.0234375
        k(    6) = (   0.0625000   0.0625000   0.6875000), wk =   0.0234375
        k(    7) = (   0.0625000   0.0625000   0.8125000), wk =   0.0234375
        k(    8) = (   0.0625000   0.0625000   0.9375000), wk =   0.0234375
        k(    9) = (   0.0625000   0.1875000   0.1875000), wk =   0.0234375
        k(   10) = (   0.0625000   0.1875000   0.3125000), wk =   0.0468750
        k(   11) = (   0.0625000   0.1875000   0.4375000), wk =   0.0468750
        k(   12) = (   0.0625000   0.1875000   0.5625000), wk =   0.0468750
        k(   13) = (   0.0625000   0.1875000   0.6875000), wk =   0.0468750
        k(   14) = (   0.0625000   0.1875000   0.8125000), wk =   0.0468750
        k(   15) = (   0.0625000   0.1875000   0.9375000), wk =   0.0468750
        k(   16) = (   0.0625000   0.3125000   0.3125000), wk =   0.0234375
        k(   17) = (   0.0625000   0.3125000   0.4375000), wk =   0.0468750
        k(   18) = (   0.0625000   0.3125000   0.5625000), wk =   0.0468750
        k(   19) = (   0.0625000   0.3125000   0.6875000), wk =   0.0468750
        k(   20) = (   0.0625000   0.3125000   0.8125000), wk =   0.0468750
        k(   21) = (   0.0625000   0.3125000   0.9375000), wk =   0.0468750
        k(   22) = (   0.0625000   0.4375000   0.4375000), wk =   0.0234375
        k(   23) = (   0.0625000   0.4375000   0.5625000), wk =   0.0468750
        k(   24) = (   0.0625000   0.4375000   0.6875000), wk =   0.0468750
        k(   25) = (   0.0625000   0.4375000   0.8125000), wk =   0.0468750
        k(   26) = (   0.0625000   0.4375000   0.9375000), wk =   0.0468750
        k(   27) = (   0.0625000   0.5625000   0.5625000), wk =   0.0234375
        k(   28) = (   0.0625000   0.5625000   0.6875000), wk =   0.0468750
        k(   29) = (   0.0625000   0.5625000   0.8125000), wk =   0.0468750
        k(   30) = (   0.0625000   0.6875000   0.6875000), wk =   0.0234375
        k(   31) = (   0.0625000   0.6875000   0.8125000), wk =   0.0468750
        k(   32) = (   0.0625000   0.8125000   0.8125000), wk =   0.0234375
        k(   33) = (   0.1875000   0.1875000   0.1875000), wk =   0.0078125
        k(   34) = (   0.1875000   0.1875000   0.3125000), wk =   0.0234375
        k(   35) = (   0.1875000   0.1875000   0.4375000), wk =   0.0234375
        k(   36) = (   0.1875000   0.1875000   0.5625000), wk =   0.0234375
        k(   37) = (   0.1875000   0.1875000   0.6875000), wk =   0.0234375
        k(   38) = (   0.1875000   0.1875000   0.8125000), wk =   0.0234375
        k(   39) = (   0.1875000   0.3125000   0.3125000), wk =   0.0234375
        k(   40) = (   0.1875000   0.3125000   0.4375000), wk =   0.0468750
        k(   41) = (   0.1875000   0.3125000   0.5625000), wk =   0.0468750
        k(   42) = (   0.1875000   0.3125000   0.6875000), wk =   0.0468750
        k(   43) = (   0.1875000   0.3125000   0.8125000), wk =   0.0468750
        k(   44) = (   0.1875000   0.4375000   0.4375000), wk =   0.0234375
        k(   45) = (   0.1875000   0.4375000   0.5625000), wk =   0.0468750
        k(   46) = (   0.1875000   0.4375000   0.6875000), wk =   0.0468750
        k(   47) = (   0.1875000   0.4375000   0.8125000), wk =   0.0468750
        k(   48) = (   0.1875000   0.5625000   0.5625000), wk =   0.0234375
        k(   49) = (   0.1875000   0.5625000   0.6875000), wk =   0.0468750
        k(   50) = (   0.1875000   0.6875000   0.6875000), wk =   0.0234375
        k(   51) = (   0.3125000   0.3125000   0.3125000), wk =   0.0078125
        k(   52) = (   0.3125000   0.3125000   0.4375000), wk =   0.0234375
        k(   53) = (   0.3125000   0.3125000   0.5625000), wk =   0.0234375
        k(   54) = (   0.3125000   0.3125000   0.6875000), wk =   0.0234375
        k(   55) = (   0.3125000   0.4375000   0.4375000), wk =   0.0234375
        k(   56) = (   0.3125000   0.4375000   0.5625000), wk =   0.0468750
        k(   57) = (   0.3125000   0.4375000   0.6875000), wk =   0.0468750
        k(   58) = (   0.3125000   0.5625000   0.5625000), wk =   0.0234375
        k(   59) = (   0.4375000   0.4375000   0.4375000), wk =   0.0078125
        k(   60) = (   0.4375000   0.4375000   0.5625000), wk =   0.0234375

     Dense  grid:    19579 G-vectors     FFT dimensions: (  40,  40,  40)

     Smooth grid:    19027 G-vectors     FFT dimensions: (  40,  40,  40)

     Estimated max dynamical RAM per process >      96.39 MB

     Check: negative core charge=   -0.000002

     Initial potential from superposition of free atoms

     starting charge      17.9960, renormalised to      18.0000
     Starting wfcs are   13 randomized atomic wfcs

     total cpu time spent up to now is        3.2 secs

     Self-consistent Calculation

     iteration #  1     ecut=    52.22 Ry     beta= 0.70
     CG style diagonalization
     ethr =  1.00E-02,  avg # of iterations =  2.0

     Threshold (ethr) on eigenvalues was too large:
     Diagonalizing with lowered threshold

     CG style diagonalization
     ethr =  3.59E-04,  avg # of iterations =  2.9

     total cpu time spent up to now is       10.6 secs

     total energy              =    -163.05362694 Ry
     estimated scf accuracy    <       0.06786355 Ry

     iteration #  2     ecut=    52.22 Ry     beta= 0.70
     CG style diagonalization
     ethr =  3.77E-04,  avg # of iterations =  3.6

     total cpu time spent up to now is       15.6 secs

     total energy              =    -163.06894776 Ry
     estimated scf accuracy    <       0.01606128 Ry

     iteration #  3     ecut=    52.22 Ry     beta= 0.70
     CG style diagonalization
     ethr =  8.92E-05,  avg # of iterations =  3.6

     total cpu time spent up to now is       20.5 secs

     total energy              =    -163.07343763 Ry
     estimated scf accuracy    <       0.00041996 Ry

     iteration #  4     ecut=    52.22 Ry     beta= 0.70
     CG style diagonalization
     ethr =  2.33E-06,  avg # of iterations =  5.0

     total cpu time spent up to now is       27.1 secs

     total energy              =    -163.07378525 Ry
     estimated scf accuracy    <       0.00005857 Ry

     iteration #  5     ecut=    52.22 Ry     beta= 0.70
     CG style diagonalization
     ethr =  3.25E-07,  avg # of iterations =  4.0

     total cpu time spent up to now is       32.6 secs

     total energy              =    -163.07378579 Ry
     estimated scf accuracy    <       0.00002773 Ry

     iteration #  6     ecut=    52.22 Ry     beta= 0.70
     CG style diagonalization
     ethr =  1.54E-07,  avg # of iterations =  3.6

     total cpu time spent up to now is       37.5 secs

     total energy              =    -163.07378881 Ry
     estimated scf accuracy    <       0.00000225 Ry

     iteration #  7     ecut=    52.22 Ry     beta= 0.70
     CG style diagonalization
     ethr =  1.25E-08,  avg # of iterations =  5.6

     total cpu time spent up to now is       45.0 secs

     End of self-consistent calculation

          k = 0.0625 0.0625 0.0625 (  2388 PWs)   bands (ev):

    -7.8869  -7.8803  -7.8803  -7.7572  -7.7572  -5.2858   5.5672   6.4791
     6.4791

          k = 0.0625 0.0625 0.1875 (  2374 PWs)   bands (ev):

    -7.9022  -7.8754  -7.8746  -7.7593  -7.7553  -5.1788   4.8114   6.2032
     6.2587

          k = 0.0625 0.0625 0.3125 (  2379 PWs)   bands (ev):

    -7.9300  -7.8649  -7.8641  -7.7636  -7.7519  -4.9721   3.9780   5.7819
     5.7971

          k = 0.0625 0.0625 0.4375 (  2381 PWs)   bands (ev):

    -7.9635  -7.8509  -7.8501  -7.7699  -7.7475  -4.6793   3.1562   5.2991
     5.3335

          k = 0.0625 0.0625 0.5625 (  2382 PWs)   bands (ev):

    -7.9969  -7.8355  -7.8346  -7.7772  -7.7428  -4.3219   2.3729   4.8482
     4.9266

          k = 0.0625 0.0625 0.6875 (  2384 PWs)   bands (ev):

    -8.0256  -7.8210  -7.8200  -7.7842  -7.7385  -3.9351   1.6627   4.4856
     4.5982

          k = 0.0625 0.0625 0.8125 (  2382 PWs)   bands (ev):

    -8.0464  -7.8099  -7.8086  -7.7897  -7.7354  -3.5797   1.0882   4.2338
     4.3696

          k = 0.0625 0.0625 0.9375 (  2386 PWs)   bands (ev):

    -8.0572  -7.8041  -7.8023  -7.7924  -7.7337  -3.3529   0.7504   4.1052
     4.2525

          k = 0.0625 0.1875 0.1875 (  2374 PWs)   bands (ev):

    -7.9124  -7.8741  -7.8704  -7.7589  -7.7554  -5.0750   4.2312   5.9300
     6.3713

          k = 0.0625 0.1875 0.3125 (  2382 PWs)   bands (ev):

    -7.9355  -7.8661  -7.8621  -7.7619  -7.7525  -4.8746   3.5290   5.4859
     6.0686

          k = 0.0625 0.1875 0.4375 (  2379 PWs)   bands (ev):

    -7.9655  -7.8535  -7.8502  -7.7672  -7.7481  -4.5917   2.8278   5.0146
     5.5636

          k = 0.0625 0.1875 0.5625 (  2380 PWs)   bands (ev):

    -7.9960  -7.8399  -7.8359  -7.7737  -7.7437  -4.2484   2.1607   4.5838
     5.0582

          k = 0.0625 0.1875 0.6875 (  2384 PWs)   bands (ev):

    -8.0223  -7.8273  -7.8217  -7.7799  -7.7400  -3.8805   1.5562   4.2289
     4.6396

          k = 0.0625 0.1875 0.8125 (  2379 PWs)   bands (ev):

    -8.0415  -7.8172  -7.8107  -7.7846  -7.7377  -3.5475   1.0665   3.9740
     4.3497

          k = 0.0625 0.1875 0.9375 (  2378 PWs)   bands (ev):

    -8.0515  -7.8115  -7.8051  -7.7869  -7.7366  -3.3385   0.7788   3.8400
     4.2037

          k = 0.0625 0.3125 0.3125 (  2378 PWs)   bands (ev):

    -7.9500  -7.8630  -7.8575  -7.7606  -7.7525  -4.6872   2.9483   5.0399
     6.1226

          k = 0.0625 0.3125 0.4375 (  2378 PWs)   bands (ev):

    -7.9721  -7.8541  -7.8498  -7.7631  -7.7498  -4.4246   2.3700   4.5825
     5.7795

          k = 0.0625 0.3125 0.5625 (  2383 PWs)   bands (ev):

    -7.9965  -7.8447  -7.8373  -7.7680  -7.7462  -4.1106   1.8386   4.1827
     5.2473

          k = 0.0625 0.3125 0.6875 (  2379 PWs)   bands (ev):

    -8.0182  -7.8357  -7.8235  -7.7732  -7.7435  -3.7816   1.3791   3.8756
     4.7133

          k = 0.0625 0.3125 0.8125 (  2377 PWs)   bands (ev):

    -8.0343  -7.8279  -7.8128  -7.7772  -7.7421  -3.4931   1.0230   3.6789
     4.2872

          k = 0.0625 0.3125 0.9375 (  2376 PWs)   bands (ev):

    -8.0427  -7.8232  -7.8073  -7.7793  -7.7416  -3.3180   0.8209   3.5920
     4.0446

          k = 0.0625 0.4375 0.4375 (  2382 PWs)   bands (ev):

    -7.9848  -7.8486  -7.8480  -7.7598  -7.7519  -4.1944   1.9103   4.1501
     5.7272

          k = 0.0625 0.4375 0.5625 (  2380 PWs)   bands (ev):

    -8.0012  -7.8448  -7.8373  -7.7616  -7.7508  -3.9266   1.5060   3.7894
     5.3553

          k = 0.0625 0.4375 0.6875 (  2376 PWs)   bands (ev):

    -8.0172  -7.8402  -7.8244  -7.7663  -7.7485  -3.6572   1.1854   3.5408
     4.8189

          k = 0.0625 0.4375 0.8125 (  2380 PWs)   bands (ev):

    -8.0294  -7.8354  -7.8138  -7.7706  -7.7471  -3.4328   0.9645   3.4297
     4.2936

          k = 0.0625 0.4375 0.9375 (  2372 PWs)   bands (ev):

    -8.0359  -7.8322  -7.8083  -7.7729  -7.7466  -3.3034   0.8521   3.4499
     3.9204

          k = 0.0625 0.5625 0.5625 (  2364 PWs)   bands (ev):

    -8.0105  -7.8409  -7.8331  -7.7576  -7.7552  -3.7228   1.2240   3.4806
     5.2501

          k = 0.0625 0.5625 0.6875 (  2361 PWs)   bands (ev):

    -8.0215  -7.8376  -7.8233  -7.7641  -7.7509  -3.5311   1.0219   3.3042
     4.8860

          k = 0.0625 0.5625 0.8125 (  2368 PWs)   bands (ev):

    -8.0308  -7.8344  -7.8136  -7.7698  -7.7480  -3.3833   0.9032   3.2938
     4.3829

          k = 0.0625 0.6875 0.6875 (  2367 PWs)   bands (ev):

    -8.0297  -7.8311  -7.8189  -7.7696  -7.7474  -3.4253   0.9105   3.2199
     4.7925

          k = 0.0625 0.6875 0.8125 (  2367 PWs)   bands (ev):

    -8.0379  -7.8260  -7.8118  -7.7759  -7.7437  -3.3533   0.8479   3.3191
     4.4767

          k = 0.0625 0.8125 0.8125 (  2375 PWs)   bands (ev):

    -8.0462  -7.8168  -7.8081  -7.7829  -7.7392  -3.3411   0.8040   3.5156
     4.4413

          k = 0.1875 0.1875 0.1875 (  2382 PWs)   bands (ev):

    -7.9218  -7.8699  -7.8699  -7.7567  -7.7567  -4.9747   3.7197   6.1543
     6.1543

          k = 0.1875 0.1875 0.3125 (  2385 PWs)   bands (ev):

    -7.9420  -7.8647  -7.8619  -7.7598  -7.7529  -4.7815   3.0903   5.8055
     5.8911

          k = 0.1875 0.1875 0.4375 (  2377 PWs)   bands (ev):

    -7.9685  -7.8549  -7.8509  -7.7645  -7.7483  -4.5098   2.4757   5.2972
     5.4178

          k = 0.1875 0.1875 0.5625 (  2384 PWs)   bands (ev):

    -7.9959  -7.8429  -7.8380  -7.7702  -7.7441  -4.1828   1.9120   4.6690
     5.0556

          k = 0.1875 0.1875 0.6875 (  2380 PWs)   bands (ev):

    -8.0197  -7.8311  -7.8251  -7.7759  -7.7411  -3.8370   1.4190   4.1229
     4.7582

          k = 0.1875 0.1875 0.8125 (  2373 PWs)   bands (ev):

    -8.0371  -7.8218  -7.8143  -7.7805  -7.7396  -3.5299   1.0295   3.7246
     4.5490

          k = 0.1875 0.3125 0.3125 (  2386 PWs)   bands (ev):

    -7.9559  -7.8614  -7.8583  -7.7579  -7.7526  -4.6029   2.5392   5.4709
     6.0026

          k = 0.1875 0.3125 0.4375 (  2381 PWs)   bands (ev):

    -7.9757  -7.8547  -7.8509  -7.7602  -7.7493  -4.3547   2.0161   5.0144
     5.6908

          k = 0.1875 0.3125 0.5625 (  2386 PWs)   bands (ev):

    -7.9972  -7.8464  -7.8400  -7.7646  -7.7458  -4.0616   1.5681   4.5084
     5.2359

          k = 0.1875 0.3125 0.6875 (  2376 PWs)   bands (ev):

    -8.0163  -7.8378  -7.8280  -7.7694  -7.7438  -3.7610   1.2162   3.9956
     4.8557

          k = 0.1875 0.3125 0.8125 (  2375 PWs)   bands (ev):

    -8.0304  -7.8304  -7.8177  -7.7736  -7.7433  -3.5045   0.9729   3.5658
     4.6022

          k = 0.1875 0.4375 0.4375 (  2385 PWs)   bands (ev):

    -7.9875  -7.8501  -7.8494  -7.7567  -7.7507  -4.1440   1.5890   4.6187
     5.7036

          k = 0.1875 0.4375 0.5625 (  2384 PWs)   bands (ev):

    -8.0016  -7.8465  -7.8406  -7.7585  -7.7494  -3.9045   1.2533   4.2163
     5.3773

          k = 0.1875 0.4375 0.6875 (  2380 PWs)   bands (ev):

    -8.0151  -7.8421  -7.8293  -7.7630  -7.7479  -3.6718   1.0344   3.8360
     4.9350

          k = 0.1875 0.4375 0.8125 (  2375 PWs)   bands (ev):

    -8.0253  -7.8375  -7.8194  -7.7673  -7.7476  -3.4862   0.9302   3.5045
     4.5729

          k = 0.1875 0.5625 0.5625 (  2380 PWs)   bands (ev):

    -8.0092  -7.8433  -7.8373  -7.7556  -7.7525  -3.7382   1.0331   3.9180
     5.2953

          k = 0.1875 0.5625 0.6875 (  2373 PWs)   bands (ev):

    -8.0180  -7.8404  -7.8286  -7.7616  -7.7493  -3.5914   0.9317   3.6703
     4.9753

          k = 0.1875 0.6875 0.6875 (  2376 PWs)   bands (ev):

    -8.0241  -7.8349  -7.8246  -7.7673  -7.7461  -3.5348   0.9220   3.5618
     4.8784

          k = 0.3125 0.3125 0.3125 (  2379 PWs)   bands (ev):

    -7.9674  -7.8578  -7.8578  -7.7535  -7.7535  -4.4430   2.0348   5.7904
     5.7904

          k = 0.3125 0.3125 0.4375 (  2393 PWs)   bands (ev):

    -7.9827  -7.8544  -7.8517  -7.7558  -7.7491  -4.2248   1.5811   5.4863
     5.5306

          k = 0.3125 0.3125 0.5625 (  2381 PWs)   bands (ev):

    -7.9989  -7.8485  -7.8434  -7.7593  -7.7461  -3.9753   1.2329   4.8275
     5.2689

          k = 0.3125 0.3125 0.6875 (  2374 PWs)   bands (ev):

    -8.0134  -7.8413  -7.8337  -7.7635  -7.7452  -3.7311   1.0142   4.1384
     5.0427

          k = 0.3125 0.4375 0.4375 (  2390 PWs)   bands (ev):

    -7.9920  -7.8516  -7.8509  -7.7525  -7.7494  -4.0547   1.2127   5.2298
     5.6529

          k = 0.3125 0.4375 0.5625 (  2384 PWs)   bands (ev):

    -8.0022  -7.8487  -7.8451  -7.7540  -7.7480  -3.8724   0.9727   4.8032
     5.4142

          k = 0.3125 0.4375 0.6875 (  2380 PWs)   bands (ev):

    -8.0112  -7.8447  -7.8368  -7.7577  -7.7478  -3.7094   0.8853   4.2322
     5.1526

          k = 0.3125 0.5625 0.5625 (  2381 PWs)   bands (ev):

    -8.0066  -7.8468  -7.8432  -7.7527  -7.7494  -3.7777   0.8517   4.5734
     5.3765

          k = 0.4375 0.4375 0.4375 (  2383 PWs)   bands (ev):

    -7.9974  -7.8513  -7.8513  -7.7490  -7.7490  -3.9479   0.9306   5.5745
     5.5745

          k = 0.4375 0.4375 0.5625 (  2382 PWs)   bands (ev):

    -8.0026  -7.8498  -7.8484  -7.7502  -7.7479  -3.8491   0.8050   5.2406
     5.4765

     highest occupied level (ev):     6.4791

!    total energy              =    -163.07379074 Ry
     estimated scf accuracy    <       0.00000037 Ry

     The total energy is the sum of the following terms:
     one-electron contribution =     -63.89660875 Ry
     hartree contribution      =      44.67420280 Ry
     xc contribution           =     -56.90507377 Ry
     ewald contribution        =     -86.94631103 Ry

     convergence has been achieved in   7 iterations

     Forces acting on atoms (cartesian axes, Ry/au):

     atom    1 type  1   force =     0.00000000    0.00000000    0.00000000
     atom    2 type  2   force =     0.00000000    0.00000000    0.00000000

     Total force =     0.000000     Total SCF correction =     0.000000


     Computing stress (Cartesian axis) and pressure

          total   stress  (Ry/bohr**3)                   (kbar)     P=       40.52
   0.00027544   0.00000000   0.00000000           40.52        0.00        0.00
   0.00000000   0.00027544  -0.00000000            0.00       40.52       -0.00
   0.00000000  -0.00000000   0.00027544            0.00       -0.00       40.52


     Writing all to output data dir /home/nico-sachs/source/q-e/tempdir/inas.save/ :
     XML data file, charge density, pseudopotentials, collected wavefunctions

     init_run     :      2.86s CPU      2.93s WALL (       1 calls)
     electrons    :     40.91s CPU     41.80s WALL (       1 calls)
     forces       :      0.55s CPU      0.58s WALL (       1 calls)
     stress       :      2.65s CPU      2.76s WALL (       1 calls)

     Called by init_run:
     wfcinit      :      1.83s CPU      1.85s WALL (       1 calls)
     potinit      :      0.08s CPU      0.09s WALL (       1 calls)
     hinit0       :      0.83s CPU      0.84s WALL (       1 calls)

     Called by electrons:
     c_bands      :     35.84s CPU     36.24s WALL (       8 calls)
     sum_band     :      4.28s CPU      4.57s WALL (       8 calls)
     v_of_rho     :      0.23s CPU      0.23s WALL (       8 calls)
     newd         :      0.64s CPU      0.87s WALL (       8 calls)
     mix_rho      :      0.02s CPU      0.02s WALL (       8 calls)

     Called by c_bands:
     init_us_2    :      0.99s CPU      1.00s WALL (    1140 calls)
     ccgdiagg     :     29.53s CPU     29.90s WALL (     480 calls)
     wfcrot       :      7.47s CPU      7.52s WALL (     420 calls)

     Called by *cgdiagg:
     h_psi        :     26.50s CPU     26.77s WALL (   13608 calls)
     s_psi        :      4.72s CPU      4.79s WALL (   26796 calls)

     Called by h_psi:
     h_psi:calbec :      3.42s CPU      3.44s WALL (   13608 calls)
     vloc_psi     :     20.22s CPU     20.45s WALL (   13608 calls)
                                        0.00s GPU  (   13608 calls)
     add_vuspsi   :      2.69s CPU      2.71s WALL (   13608 calls)
     hs_1psi      :     22.58s CPU     22.84s WALL (   13188 calls)
     s_1psi       :      4.93s CPU      5.00s WALL (   13188 calls)

     General routines
     calbec       :      8.12s CPU      8.20s WALL (   28296 calls)
     fft          :      0.32s CPU      0.32s WALL (     128 calls)
     ffts         :      0.01s CPU      0.01s WALL (      16 calls)
     fftw         :     19.74s CPU     19.94s WALL (   38736 calls)
     interpolate  :      0.01s CPU      0.01s WALL (       8 calls)

     Parallel routines

     PWSCF        :     47.24s CPU     48.40s WALL


   This run was terminated on:  22:53:27  26Jan2026            

=------------------------------------------------------------------------------=
   JOB DONE.
=------------------------------------------------------------------------------=
