
     Program PWSCF v.7.5 starts on 26Jan2026 at 22:51:21 

     This program is part of the open-source Quantum ESPRESSO suite
     for quantum simulation of materials; please cite
         "P. Giannozzi et al., J. Phys.:Condens. Matter 21 395502 (2009);
         "P. Giannozzi et al., J. Phys.:Condens. Matter 29 465901 (2017);
         "P. Giannozzi et al., J. Chem. Phys. 152 154105 (2020);
          URL http://www.quantum-espresso.org", 
     in publications or presentations arising from this work. More details at
     http://www.quantum-espresso.org/quote

     Parallel version (MPI), running on     1 processors

     MPI processes distributed on     1 nodes
     25374 MiB available memory on the printing compute node when the environment starts

     Waiting for input...
     Reading input from standard input

     Current dimensions of program PWSCF are:
     Max number of different atomic species (ntypx) = 10
     Max number of k-points (npk) =  40000
     Max angular momentum in pseudopotentials (lmaxx) =  4
     file In.pbe-dn-rrkjus_psl.0.2.2.UPF: wavefunction(s)  5S renormalized
     Message from routine set_cutoff:
     ecutrho < 4*ecutwfc, are you sure?

     Subspace diagonalization in iterative solution of the eigenvalue problem:
     a serial algorithm will be used


     G-vector sticks info
     --------------------
     sticks:   dense  smooth     PW     G-vecs:    dense   smooth      PW
     Sum         955     955    439                19579    19579    6081

     Using Slab Decomposition



     bravais-lattice index     =            2
     lattice parameter (alat)  =      11.4291  a.u.
     unit-cell volume          =     373.2261 (a.u.)^3
     number of atoms/cell      =            2
     number of atomic types    =            2
     number of electrons       =        18.00
     number of Kohn-Sham states=            9
     kinetic-energy cutoff     =      85.5556  Ry
     charge density cutoff     =     212.0000  Ry
     scf convergence threshold =      1.0E-06
     mixing beta               =       0.7000
     number of iterations used =            8  plain     mixing
     Exchange-correlation= PBE
                           (   1   4   3   4   0   0   0)

     celldm(1)=  11.429064  celldm(2)=   0.000000  celldm(3)=   0.000000
     celldm(4)=   0.000000  celldm(5)=   0.000000  celldm(6)=   0.000000

     crystal axes: (cart. coord. in units of alat)
               a(1) = (  -0.500000   0.000000   0.500000 )  
               a(2) = (   0.000000   0.500000   0.500000 )  
               a(3) = (  -0.500000   0.500000   0.000000 )  

     reciprocal axes: (cart. coord. in units 2 pi/alat)
               b(1) = ( -1.000000 -1.000000  1.000000 )  
               b(2) = (  1.000000  1.000000  1.000000 )  
               b(3) = ( -1.000000  1.000000 -1.000000 )  


     PseudoPot. # 1 for In read from file:
     /home/nico-sachs/source/q-e/SSSP_1.3.0_PBE_efficiency/In.pbe-dn-rrkjus_psl.0.2.2.UPF
     MD5 check sum: 25e7c42c3b55b68f4bf926be2e7201a4
     Pseudo is Ultrasoft + core correction, Zval = 13.0
     Generated using "atomic" code by A. Dal Corso  v.5.0.99 svn rev. 10869
     Using radial grid of 1241 points,  6 beta functions with: 
                l(1) =   0
                l(2) =   0
                l(3) =   1
                l(4) =   1
                l(5) =   2
                l(6) =   2
     Q(r) pseudized with 0 coefficients 


     PseudoPot. # 2 for As read from file:
     /home/nico-sachs/source/q-e/SSSP_1.3.0_PBE_efficiency/As.pbe-n-rrkjus_psl.0.2.UPF
     MD5 check sum: 767315de957beeeb34f87d97bf945c8f
     Pseudo is Ultrasoft + core correction, Zval =  5.0
     Generated using "atomic" code by A. Dal Corso  v.5.0.99 svn rev. 10869
     Using radial grid of 1209 points,  4 beta functions with: 
                l(1) =   0
                l(2) =   0
                l(3) =   1
                l(4) =   1
     Q(r) pseudized with 0 coefficients 


     atomic species   valence    mass     pseudopotential
     In               13.00   114.81800     In( 1.00)
     As                5.00    74.92100     As( 1.00)

     24 Sym. Ops. (no inversion) found



   Cartesian axes

     site n.     atom                  positions (alat units)
         1        In     tau(   1) = (   0.0000000   0.0000000   0.0000000  )
         2        As     tau(   2) = (  -0.2500000   0.2500000   0.2500000  )

     number of k points=    60
                       cart. coord. in units 2pi/alat
        k(    1) = (   0.0625000   0.0625000   0.0625000), wk =   0.0078125
        k(    2) = (   0.0625000   0.0625000   0.1875000), wk =   0.0234375
        k(    3) = (   0.0625000   0.0625000   0.3125000), wk =   0.0234375
        k(    4) = (   0.0625000   0.0625000   0.4375000), wk =   0.0234375
        k(    5) = (   0.0625000   0.0625000   0.5625000), wk =   0.0234375
        k(    6) = (   0.0625000   0.0625000   0.6875000), wk =   0.0234375
        k(    7) = (   0.0625000   0.0625000   0.8125000), wk =   0.0234375
        k(    8) = (   0.0625000   0.0625000   0.9375000), wk =   0.0234375
        k(    9) = (   0.0625000   0.1875000   0.1875000), wk =   0.0234375
        k(   10) = (   0.0625000   0.1875000   0.3125000), wk =   0.0468750
        k(   11) = (   0.0625000   0.1875000   0.4375000), wk =   0.0468750
        k(   12) = (   0.0625000   0.1875000   0.5625000), wk =   0.0468750
        k(   13) = (   0.0625000   0.1875000   0.6875000), wk =   0.0468750
        k(   14) = (   0.0625000   0.1875000   0.8125000), wk =   0.0468750
        k(   15) = (   0.0625000   0.1875000   0.9375000), wk =   0.0468750
        k(   16) = (   0.0625000   0.3125000   0.3125000), wk =   0.0234375
        k(   17) = (   0.0625000   0.3125000   0.4375000), wk =   0.0468750
        k(   18) = (   0.0625000   0.3125000   0.5625000), wk =   0.0468750
        k(   19) = (   0.0625000   0.3125000   0.6875000), wk =   0.0468750
        k(   20) = (   0.0625000   0.3125000   0.8125000), wk =   0.0468750
        k(   21) = (   0.0625000   0.3125000   0.9375000), wk =   0.0468750
        k(   22) = (   0.0625000   0.4375000   0.4375000), wk =   0.0234375
        k(   23) = (   0.0625000   0.4375000   0.5625000), wk =   0.0468750
        k(   24) = (   0.0625000   0.4375000   0.6875000), wk =   0.0468750
        k(   25) = (   0.0625000   0.4375000   0.8125000), wk =   0.0468750
        k(   26) = (   0.0625000   0.4375000   0.9375000), wk =   0.0468750
        k(   27) = (   0.0625000   0.5625000   0.5625000), wk =   0.0234375
        k(   28) = (   0.0625000   0.5625000   0.6875000), wk =   0.0468750
        k(   29) = (   0.0625000   0.5625000   0.8125000), wk =   0.0468750
        k(   30) = (   0.0625000   0.6875000   0.6875000), wk =   0.0234375
        k(   31) = (   0.0625000   0.6875000   0.8125000), wk =   0.0468750
        k(   32) = (   0.0625000   0.8125000   0.8125000), wk =   0.0234375
        k(   33) = (   0.1875000   0.1875000   0.1875000), wk =   0.0078125
        k(   34) = (   0.1875000   0.1875000   0.3125000), wk =   0.0234375
        k(   35) = (   0.1875000   0.1875000   0.4375000), wk =   0.0234375
        k(   36) = (   0.1875000   0.1875000   0.5625000), wk =   0.0234375
        k(   37) = (   0.1875000   0.1875000   0.6875000), wk =   0.0234375
        k(   38) = (   0.1875000   0.1875000   0.8125000), wk =   0.0234375
        k(   39) = (   0.1875000   0.3125000   0.3125000), wk =   0.0234375
        k(   40) = (   0.1875000   0.3125000   0.4375000), wk =   0.0468750
        k(   41) = (   0.1875000   0.3125000   0.5625000), wk =   0.0468750
        k(   42) = (   0.1875000   0.3125000   0.6875000), wk =   0.0468750
        k(   43) = (   0.1875000   0.3125000   0.8125000), wk =   0.0468750
        k(   44) = (   0.1875000   0.4375000   0.4375000), wk =   0.0234375
        k(   45) = (   0.1875000   0.4375000   0.5625000), wk =   0.0468750
        k(   46) = (   0.1875000   0.4375000   0.6875000), wk =   0.0468750
        k(   47) = (   0.1875000   0.4375000   0.8125000), wk =   0.0468750
        k(   48) = (   0.1875000   0.5625000   0.5625000), wk =   0.0234375
        k(   49) = (   0.1875000   0.5625000   0.6875000), wk =   0.0468750
        k(   50) = (   0.1875000   0.6875000   0.6875000), wk =   0.0234375
        k(   51) = (   0.3125000   0.3125000   0.3125000), wk =   0.0078125
        k(   52) = (   0.3125000   0.3125000   0.4375000), wk =   0.0234375
        k(   53) = (   0.3125000   0.3125000   0.5625000), wk =   0.0234375
        k(   54) = (   0.3125000   0.3125000   0.6875000), wk =   0.0234375
        k(   55) = (   0.3125000   0.4375000   0.4375000), wk =   0.0234375
        k(   56) = (   0.3125000   0.4375000   0.5625000), wk =   0.0468750
        k(   57) = (   0.3125000   0.4375000   0.6875000), wk =   0.0468750
        k(   58) = (   0.3125000   0.5625000   0.5625000), wk =   0.0234375
        k(   59) = (   0.4375000   0.4375000   0.4375000), wk =   0.0078125
        k(   60) = (   0.4375000   0.4375000   0.5625000), wk =   0.0234375

     Dense  grid:    19579 G-vectors     FFT dimensions: (  40,  40,  40)

     Estimated max dynamical RAM per process >     119.29 MB

     Check: negative core charge=   -0.000002

     Initial potential from superposition of free atoms

     starting charge      17.9960, renormalised to      18.0000
     Starting wfcs are   13 randomized atomic wfcs

     total cpu time spent up to now is        4.2 secs

     Self-consistent Calculation

     iteration #  1     ecut=    85.56 Ry     beta= 0.70
     CG style diagonalization
     ethr =  1.00E-02,  avg # of iterations =  2.0

     Threshold (ethr) on eigenvalues was too large:
     Diagonalizing with lowered threshold

     CG style diagonalization
     ethr =  3.63E-04,  avg # of iterations =  2.9

     total cpu time spent up to now is       16.0 secs

     total energy              =    -163.05428181 Ry
     estimated scf accuracy    <       0.06789484 Ry

     iteration #  2     ecut=    85.56 Ry     beta= 0.70
     CG style diagonalization
     ethr =  3.77E-04,  avg # of iterations =  3.6

     total cpu time spent up to now is       23.7 secs

     total energy              =    -163.06957339 Ry
     estimated scf accuracy    <       0.01612356 Ry

     iteration #  3     ecut=    85.56 Ry     beta= 0.70
     CG style diagonalization
     ethr =  8.96E-05,  avg # of iterations =  3.6

     total cpu time spent up to now is       31.4 secs

     total energy              =    -163.07411794 Ry
     estimated scf accuracy    <       0.00042305 Ry

     iteration #  4     ecut=    85.56 Ry     beta= 0.70
     CG style diagonalization
     ethr =  2.35E-06,  avg # of iterations =  5.0

     total cpu time spent up to now is       41.9 secs

     total energy              =    -163.07446870 Ry
     estimated scf accuracy    <       0.00006084 Ry

     iteration #  5     ecut=    85.56 Ry     beta= 0.70
     CG style diagonalization
     ethr =  3.38E-07,  avg # of iterations =  4.1

     total cpu time spent up to now is       50.5 secs

     total energy              =    -163.07446987 Ry
     estimated scf accuracy    <       0.00002970 Ry

     iteration #  6     ecut=    85.56 Ry     beta= 0.70
     CG style diagonalization
     ethr =  1.65E-07,  avg # of iterations =  3.6

     total cpu time spent up to now is       58.1 secs

     total energy              =    -163.07447196 Ry
     estimated scf accuracy    <       0.00000326 Ry

     iteration #  7     ecut=    85.56 Ry     beta= 0.70
     CG style diagonalization
     ethr =  1.81E-08,  avg # of iterations =  5.5

     total cpu time spent up to now is       69.6 secs

     End of self-consistent calculation

          k = 0.0625 0.0625 0.0625 (  4987 PWs)   bands (ev):

    -7.8929  -7.8863  -7.8863  -7.7633  -7.7633  -5.2854   5.5669   6.4787
     6.4787

          k = 0.0625 0.0625 0.1875 (  4987 PWs)   bands (ev):

    -7.9082  -7.8814  -7.8806  -7.7654  -7.7614  -5.1785   4.8112   6.2029
     6.2584

          k = 0.0625 0.0625 0.3125 (  4965 PWs)   bands (ev):

    -7.9359  -7.8709  -7.8701  -7.7697  -7.7580  -4.9719   3.9777   5.7817
     5.7969

          k = 0.0625 0.0625 0.4375 (  4975 PWs)   bands (ev):

    -7.9693  -7.8569  -7.8561  -7.7760  -7.7536  -4.6791   3.1559   5.2990
     5.3335

          k = 0.0625 0.0625 0.5625 (  4988 PWs)   bands (ev):

    -8.0026  -7.8415  -7.8407  -7.7833  -7.7489  -4.3218   2.3727   4.8482
     4.9266

          k = 0.0625 0.0625 0.6875 (  4984 PWs)   bands (ev):

    -8.0313  -7.8271  -7.8261  -7.7903  -7.7446  -3.9351   1.6625   4.4856
     4.5983

          k = 0.0625 0.0625 0.8125 (  4986 PWs)   bands (ev):

    -8.0520  -7.8160  -7.8147  -7.7957  -7.7415  -3.5797   1.0880   4.2339
     4.3697

          k = 0.0625 0.0625 0.9375 (  4981 PWs)   bands (ev):

    -8.0629  -7.8102  -7.8084  -7.7985  -7.7399  -3.3529   0.7502   4.1054
     4.2527

          k = 0.0625 0.1875 0.1875 (  4977 PWs)   bands (ev):

    -7.9183  -7.8801  -7.8765  -7.7650  -7.7615  -5.0748   4.2310   5.9298
     6.3710

          k = 0.0625 0.1875 0.3125 (  4966 PWs)   bands (ev):

    -7.9414  -7.8721  -7.8681  -7.7680  -7.7586  -4.8744   3.5288   5.4858
     6.0684

          k = 0.0625 0.1875 0.4375 (  4960 PWs)   bands (ev):

    -7.9713  -7.8596  -7.8563  -7.7733  -7.7542  -4.5915   2.8275   5.0145
     5.5634

          k = 0.0625 0.1875 0.5625 (  4982 PWs)   bands (ev):

    -8.0017  -7.8460  -7.8420  -7.7798  -7.7498  -4.2483   2.1605   4.5838
     5.0582

          k = 0.0625 0.1875 0.6875 (  4988 PWs)   bands (ev):

    -8.0280  -7.8333  -7.8278  -7.7860  -7.7462  -3.8805   1.5560   4.2290
     4.6397

          k = 0.0625 0.1875 0.8125 (  4987 PWs)   bands (ev):

    -8.0471  -7.8233  -7.8168  -7.7907  -7.7438  -3.5475   1.0662   3.9742
     4.3499

          k = 0.0625 0.1875 0.9375 (  4984 PWs)   bands (ev):

    -8.0572  -7.8176  -7.8111  -7.7929  -7.7427  -3.3386   0.7786   3.8402
     4.2038

          k = 0.0625 0.3125 0.3125 (  4975 PWs)   bands (ev):

    -7.9558  -7.8690  -7.8636  -7.7667  -7.7586  -4.6870   2.9481   5.0398
     6.1224

          k = 0.0625 0.3125 0.4375 (  4983 PWs)   bands (ev):

    -7.9779  -7.8602  -7.8558  -7.7692  -7.7559  -4.4245   2.3698   4.5825
     5.7794

          k = 0.0625 0.3125 0.5625 (  4990 PWs)   bands (ev):

    -8.0022  -7.8507  -7.8433  -7.7740  -7.7523  -4.1105   1.8385   4.1827
     5.2473

          k = 0.0625 0.3125 0.6875 (  4991 PWs)   bands (ev):

    -8.0239  -7.8418  -7.8296  -7.7792  -7.7496  -3.7816   1.3789   3.8757
     4.7134

          k = 0.0625 0.3125 0.8125 (  4994 PWs)   bands (ev):

    -8.0399  -7.8340  -7.8189  -7.7833  -7.7482  -3.4931   1.0228   3.6790
     4.2873

          k = 0.0625 0.3125 0.9375 (  4997 PWs)   bands (ev):

    -8.0484  -7.8293  -7.8133  -7.7853  -7.7477  -3.3181   0.8206   3.5921
     4.0447

          k = 0.0625 0.4375 0.4375 (  4990 PWs)   bands (ev):

    -7.9906  -7.8546  -7.8540  -7.7659  -7.7580  -4.1944   1.9102   4.1501
     5.7271

          k = 0.0625 0.4375 0.5625 (  4991 PWs)   bands (ev):

    -8.0069  -7.8509  -7.8433  -7.7677  -7.7569  -3.9266   1.5058   3.7894
     5.3553

          k = 0.0625 0.4375 0.6875 (  4988 PWs)   bands (ev):

    -8.0228  -7.8463  -7.8304  -7.7724  -7.7546  -3.6572   1.1853   3.5409
     4.8189

          k = 0.0625 0.4375 0.8125 (  4997 PWs)   bands (ev):

    -8.0350  -7.8415  -7.8199  -7.7767  -7.7532  -3.4329   0.9644   3.4298
     4.2937

          k = 0.0625 0.4375 0.9375 (  5011 PWs)   bands (ev):

    -8.0416  -7.8382  -7.8144  -7.7790  -7.7527  -3.3034   0.8519   3.4500
     3.9205

          k = 0.0625 0.5625 0.5625 (  4986 PWs)   bands (ev):

    -8.0162  -7.8470  -7.8392  -7.7637  -7.7613  -3.7228   1.2238   3.4807
     5.2501

          k = 0.0625 0.5625 0.6875 (  5001 PWs)   bands (ev):

    -8.0272  -7.8436  -7.8294  -7.7702  -7.7570  -3.5311   1.0218   3.3043
     4.8860

          k = 0.0625 0.5625 0.8125 (  5001 PWs)   bands (ev):

    -8.0364  -7.8405  -7.8197  -7.7759  -7.7541  -3.3833   0.9030   3.2939
     4.3829

          k = 0.0625 0.6875 0.6875 (  5006 PWs)   bands (ev):

    -8.0354  -7.8371  -7.8249  -7.7757  -7.7536  -3.4254   0.9103   3.2200
     4.7925

          k = 0.0625 0.6875 0.8125 (  4996 PWs)   bands (ev):

    -8.0435  -7.8321  -7.8178  -7.7820  -7.7498  -3.3533   0.8477   3.3192
     4.4768

          k = 0.0625 0.8125 0.8125 (  4990 PWs)   bands (ev):

    -8.0519  -7.8228  -7.8141  -7.7890  -7.7453  -3.3411   0.8038   3.5157
     4.4414

          k = 0.1875 0.1875 0.1875 (  4978 PWs)   bands (ev):

    -7.9277  -7.8760  -7.8760  -7.7628  -7.7628  -4.9745   3.7195   6.1541
     6.1541

          k = 0.1875 0.1875 0.3125 (  4960 PWs)   bands (ev):

    -7.9478  -7.8707  -7.8680  -7.7659  -7.7590  -4.7813   3.0901   5.8053
     5.8909

          k = 0.1875 0.1875 0.4375 (  4965 PWs)   bands (ev):

    -7.9743  -7.8609  -7.8569  -7.7706  -7.7544  -4.5096   2.4755   5.2971
     5.4177

          k = 0.1875 0.1875 0.5625 (  4987 PWs)   bands (ev):

    -8.0016  -7.8489  -7.8441  -7.7763  -7.7502  -4.1827   1.9118   4.6690
     5.0556

          k = 0.1875 0.1875 0.6875 (  4994 PWs)   bands (ev):

    -8.0254  -7.8372  -7.8312  -7.7820  -7.7472  -3.8370   1.4188   4.1230
     4.7583

          k = 0.1875 0.1875 0.8125 (  4989 PWs)   bands (ev):

    -8.0428  -7.8279  -7.8204  -7.7865  -7.7457  -3.5299   1.0293   3.7247
     4.5491

          k = 0.1875 0.3125 0.3125 (  4969 PWs)   bands (ev):

    -7.9617  -7.8674  -7.8643  -7.7640  -7.7587  -4.6028   2.5390   5.4708
     6.0024

          k = 0.1875 0.3125 0.4375 (  4987 PWs)   bands (ev):

    -7.9815  -7.8608  -7.8569  -7.7663  -7.7554  -4.3546   2.0159   5.0143
     5.6906

          k = 0.1875 0.3125 0.5625 (  4989 PWs)   bands (ev):

    -8.0029  -7.8525  -7.8461  -7.7707  -7.7519  -4.0616   1.5680   4.5084
     5.2359

          k = 0.1875 0.3125 0.6875 (  4991 PWs)   bands (ev):

    -8.0220  -7.8439  -7.8341  -7.7755  -7.7499  -3.7610   1.2161   3.9957
     4.8557

          k = 0.1875 0.3125 0.8125 (  4994 PWs)   bands (ev):

    -8.0361  -7.8365  -7.8238  -7.7797  -7.7495  -3.5045   0.9728   3.5659
     4.6023

          k = 0.1875 0.4375 0.4375 (  4992 PWs)   bands (ev):

    -7.9932  -7.8561  -7.8554  -7.7628  -7.7568  -4.1439   1.5889   4.6186
     5.7035

          k = 0.1875 0.4375 0.5625 (  4992 PWs)   bands (ev):

    -8.0073  -7.8526  -7.8466  -7.7646  -7.7555  -3.9045   1.2532   4.2163
     5.3773

          k = 0.1875 0.4375 0.6875 (  4994 PWs)   bands (ev):

    -8.0207  -7.8482  -7.8354  -7.7691  -7.7540  -3.6718   1.0343   3.8361
     4.9350

          k = 0.1875 0.4375 0.8125 (  5001 PWs)   bands (ev):

    -8.0310  -7.8436  -7.8254  -7.7734  -7.7537  -3.4863   0.9300   3.5046
     4.5730

          k = 0.1875 0.5625 0.5625 (  4993 PWs)   bands (ev):

    -8.0149  -7.8494  -7.8433  -7.7617  -7.7586  -3.7382   1.0330   3.9180
     5.2953

          k = 0.1875 0.5625 0.6875 (  4993 PWs)   bands (ev):

    -8.0236  -7.8465  -7.8346  -7.7677  -7.7554  -3.5914   0.9316   3.6703
     4.9753

          k = 0.1875 0.6875 0.6875 (  4997 PWs)   bands (ev):

    -8.0297  -7.8410  -7.8307  -7.7734  -7.7522  -3.5348   0.9218   3.5619
     4.8785

          k = 0.3125 0.3125 0.3125 (  4985 PWs)   bands (ev):

    -7.9732  -7.8638  -7.8638  -7.7596  -7.7596  -4.4429   2.0347   5.7903
     5.7903

          k = 0.3125 0.3125 0.4375 (  4982 PWs)   bands (ev):

    -7.9884  -7.8604  -7.8578  -7.7619  -7.7552  -4.2247   1.5810   5.4862
     5.5305

          k = 0.3125 0.3125 0.5625 (  4986 PWs)   bands (ev):

    -8.0046  -7.8545  -7.8494  -7.7654  -7.7522  -3.9753   1.2328   4.8275
     5.2689

          k = 0.3125 0.3125 0.6875 (  4996 PWs)   bands (ev):

    -8.0191  -7.8474  -7.8398  -7.7695  -7.7513  -3.7311   1.0141   4.1384
     5.0427

          k = 0.3125 0.4375 0.4375 (  4988 PWs)   bands (ev):

    -7.9978  -7.8576  -7.8570  -7.7586  -7.7555  -4.0546   1.2126   5.2297
     5.6529

          k = 0.3125 0.4375 0.5625 (  4995 PWs)   bands (ev):

    -8.0079  -7.8547  -7.8512  -7.7601  -7.7541  -3.8724   0.9726   4.8032
     5.4142

          k = 0.3125 0.4375 0.6875 (  4995 PWs)   bands (ev):

    -8.0169  -7.8507  -7.8428  -7.7638  -7.7540  -3.7094   0.8853   4.2322
     5.1527

          k = 0.3125 0.5625 0.5625 (  4993 PWs)   bands (ev):

    -8.0123  -7.8528  -7.8493  -7.7588  -7.7555  -3.7777   0.8516   4.5734
     5.3765

          k = 0.4375 0.4375 0.4375 (  4994 PWs)   bands (ev):

    -8.0031  -7.8573  -7.8573  -7.7551  -7.7551  -3.9479   0.9306   5.5744
     5.5744

          k = 0.4375 0.4375 0.5625 (  4986 PWs)   bands (ev):

    -8.0082  -7.8559  -7.8545  -7.7563  -7.7540  -3.8491   0.8049   5.2405
     5.4764

     highest occupied level (ev):     6.4787

!    total energy              =    -163.07447420 Ry
     estimated scf accuracy    <       0.00000076 Ry

     The total energy is the sum of the following terms:
     one-electron contribution =     -63.89680761 Ry
     hartree contribution      =      44.67313892 Ry
     xc contribution           =     -56.90449449 Ry
     ewald contribution        =     -86.94631103 Ry

     convergence has been achieved in   7 iterations

     Forces acting on atoms (cartesian axes, Ry/au):

     atom    1 type  1   force =     0.00000000    0.00000000   -0.00000000
     atom    2 type  2   force =    -0.00000000   -0.00000000    0.00000000

     Total force =     0.000000     Total SCF correction =     0.000000


     Computing stress (Cartesian axis) and pressure

          total   stress  (Ry/bohr**3)                   (kbar)     P=       40.62
   0.00027610   0.00000000   0.00000000           40.62        0.00        0.00
   0.00000000   0.00027610  -0.00000000            0.00       40.62       -0.00
   0.00000000  -0.00000000   0.00027610            0.00       -0.00       40.62


     Writing all to output data dir /home/nico-sachs/source/q-e/tempdir/inas.save/ :
     XML data file, charge density, pseudopotentials, collected wavefunctions

     init_run     :      3.91s CPU      3.98s WALL (       1 calls)
     electrons    :     64.40s CPU     65.36s WALL (       1 calls)
     forces       :      1.01s CPU      1.04s WALL (       1 calls)
     stress       :      4.62s CPU      4.71s WALL (       1 calls)

     Called by init_run:
     wfcinit      :      2.82s CPU      2.85s WALL (       1 calls)
     potinit      :      0.08s CPU      0.08s WALL (       1 calls)
     hinit0       :      0.87s CPU      0.88s WALL (       1 calls)

     Called by electrons:
     c_bands      :     57.59s CPU     58.02s WALL (       8 calls)
     sum_band     :      6.06s CPU      6.33s WALL (       8 calls)
     v_of_rho     :      0.22s CPU      0.23s WALL (       8 calls)
     newd         :      0.63s CPU      0.87s WALL (       8 calls)
     mix_rho      :      0.02s CPU      0.02s WALL (       8 calls)

     Called by c_bands:
     init_us_2    :      2.11s CPU      2.13s WALL (    1140 calls)
     ccgdiagg     :     47.76s CPU     48.15s WALL (     480 calls)
     wfcrot       :     11.23s CPU     11.28s WALL (     420 calls)

     Called by *cgdiagg:
     h_psi        :     37.54s CPU     37.79s WALL (   13515 calls)
     s_psi        :      9.79s CPU      9.88s WALL (   26610 calls)

     Called by h_psi:
     h_psi:calbec :      7.11s CPU      7.14s WALL (   13515 calls)
     vloc_psi     :     24.61s CPU     24.79s WALL (   13515 calls)
                                        0.00s GPU  (   13515 calls)
     add_vuspsi   :      5.58s CPU      5.62s WALL (   13515 calls)
     hs_1psi      :     33.54s CPU     33.78s WALL (   13095 calls)
     s_1psi       :     10.12s CPU     10.22s WALL (   13095 calls)

     General routines
     calbec       :     16.99s CPU     17.09s WALL (   28110 calls)
     fft          :      0.31s CPU      0.31s WALL (     114 calls)
     ffts         :      0.01s CPU      0.01s WALL (       8 calls)
     fftw         :     24.30s CPU     24.46s WALL (   38550 calls)

     Parallel routines

     PWSCF        :   1m14.23s CPU   1m15.42s WALL


   This run was terminated on:  22:52:36  26Jan2026            

=------------------------------------------------------------------------------=
   JOB DONE.
=------------------------------------------------------------------------------=
