
     Program PWSCF v.7.5 starts on 27Jan2026 at 15:25:58 

     This program is part of the open-source Quantum ESPRESSO suite
     for quantum simulation of materials; please cite
         "P. Giannozzi et al., J. Phys.:Condens. Matter 21 395502 (2009);
         "P. Giannozzi et al., J. Phys.:Condens. Matter 29 465901 (2017);
         "P. Giannozzi et al., J. Chem. Phys. 152 154105 (2020);
          URL http://www.quantum-espresso.org", 
     in publications or presentations arising from this work. More details at
     http://www.quantum-espresso.org/quote

     Parallel version (MPI), running on     1 processors

     MPI processes distributed on     1 nodes
     23156 MiB available memory on the printing compute node when the environment starts

     Waiting for input...
     Reading input from standard input

     Current dimensions of program PWSCF are:
     Max number of different atomic species (ntypx) = 10
     Max number of k-points (npk) =  40000
     Max angular momentum in pseudopotentials (lmaxx) =  4
     file Ga.pbe-dn-kjpaw_psl.1.0.0.UPF: wavefunction(s)  4S renormalized

     Subspace diagonalization in iterative solution of the eigenvalue problem:
     a serial algorithm will be used


     G-vector sticks info
     --------------------
     sticks:   dense  smooth     PW     G-vecs:    dense   smooth      PW
     Sum        1003     199     61                41745     3753     713

     Using Slab Decomposition



     bravais-lattice index     =            4
     lattice parameter (alat)  =       6.0263  a.u.
     unit-cell volume          =     308.1662 (a.u.)^3
     number of atoms/cell      =            4
     number of atomic types    =            2
     number of electrons       =        36.00
     number of Kohn-Sham states=           18
     kinetic-energy cutoff     =      20.0000  Ry
     charge density cutoff     =     400.0000  Ry
     scf convergence threshold =      1.0E-06
     mixing beta               =       0.7000
     number of iterations used =            8  plain     mixing
     Exchange-correlation= PBE
                           (   1   4   3   4   0   0   0)

     celldm(1)=   6.026337  celldm(2)=   0.000000  celldm(3)=   1.625902
     celldm(4)=   0.000000  celldm(5)=   0.000000  celldm(6)=   0.000000

     crystal axes: (cart. coord. in units of alat)
               a(1) = (   1.000000   0.000000   0.000000 )  
               a(2) = (  -0.500000   0.866025   0.000000 )  
               a(3) = (   0.000000   0.000000   1.625902 )  

     reciprocal axes: (cart. coord. in units 2 pi/alat)
               b(1) = (  1.000000  0.577350 -0.000000 )  
               b(2) = (  0.000000  1.154701  0.000000 )  
               b(3) = (  0.000000 -0.000000  0.615043 )  


     PseudoPot. # 1 for Ga read from file:
     /home/nico-sachs/source/q-e/SSSP_1.3.0_PBE_efficiency/Ga.pbe-dn-kjpaw_psl.1.0.0.UPF
     MD5 check sum: a27b4342b1af7e5f338de752e9ed7044
     Pseudo is Projector augmented-wave + core cor, Zval = 13.0
     Generated using "atomic" code by A. Dal Corso  v.5.1
     Shape of augmentation charge: PSQ
     Using radial grid of 1205 points,  6 beta functions with: 
                l(1) =   0
                l(2) =   0
                l(3) =   1
                l(4) =   1
                l(5) =   2
                l(6) =   2
     Q(r) pseudized with 0 coefficients 


     PseudoPot. # 2 for N  read from file:
     /home/nico-sachs/source/q-e/SSSP_1.3.0_PBE_efficiency/N.pbe-n-radius_5.UPF
     MD5 check sum: 16739722b17309cd8fe442a2ace49922
     Pseudo is Ultrasoft + core correction, Zval =  5.0
     Generated using "atomic" code by A. Dal Corso  v.5.1
     Using radial grid of 1085 points,  4 beta functions with: 
                l(1) =   0
                l(2) =   0
                l(3) =   1
                l(4) =   1
     Q(r) pseudized with 0 coefficients 


     atomic species   valence    mass     pseudopotential
     Ga               13.00    69.72300     Ga( 1.00)
     N                 5.00    14.00700     N ( 1.00)

     12 Sym. Ops. (no inversion) found ( 6 have fractional translation)



   Cartesian axes

     site n.     atom                  positions (alat units)
         1        Ga     tau(   1) = (  -0.0000000   0.5773503   0.0000000  )
         2        Ga     tau(   2) = (   0.5000000   0.2886751   0.8129508  )
         3        N      tau(   3) = (  -0.0000000   0.5773503   0.6097131  )
         4        N      tau(   4) = (   0.5000000   0.2886751   1.4226638  )

     number of k points=    21
                       cart. coord. in units 2pi/alat
        k(    1) = (   0.0000000   0.0000000   0.0000000), wk =   0.0138889
        k(    2) = (   0.0000000   0.0000000   0.1537608), wk =   0.0277778
        k(    3) = (   0.0000000   0.0000000  -0.3075217), wk =   0.0138889
        k(    4) = (   0.0000000   0.1924501   0.0000000), wk =   0.0833333
        k(    5) = (   0.0000000   0.1924501   0.1537608), wk =   0.1666667
        k(    6) = (   0.0000000   0.1924501  -0.3075217), wk =   0.0833333
        k(    7) = (   0.0000000   0.3849002   0.0000000), wk =   0.0833333
        k(    8) = (   0.0000000   0.3849002   0.1537608), wk =   0.1666667
        k(    9) = (   0.0000000   0.3849002  -0.3075217), wk =   0.0833333
        k(   10) = (   0.0000000  -0.5773503   0.0000000), wk =   0.0416667
        k(   11) = (   0.0000000  -0.5773503   0.1537608), wk =   0.0833333
        k(   12) = (   0.0000000  -0.5773503  -0.3075217), wk =   0.0416667
        k(   13) = (   0.1666667   0.2886751   0.0000000), wk =   0.0833333
        k(   14) = (   0.1666667   0.2886751   0.1537608), wk =   0.1666667
        k(   15) = (   0.1666667   0.2886751  -0.3075217), wk =   0.0833333
        k(   16) = (   0.1666667   0.4811252   0.0000000), wk =   0.1666667
        k(   17) = (   0.1666667   0.4811252   0.1537608), wk =   0.3333333
        k(   18) = (   0.1666667   0.4811252  -0.3075217), wk =   0.1666667
        k(   19) = (   0.3333333   0.5773503   0.0000000), wk =   0.0277778
        k(   20) = (   0.3333333   0.5773503   0.1537608), wk =   0.0555556
        k(   21) = (   0.3333333   0.5773503  -0.3075217), wk =   0.0277778

     Dense  grid:    41745 G-vectors     FFT dimensions: (  40,  40,  64)

     Smooth grid:     3753 G-vectors     FFT dimensions: (  18,  18,  30)

     Estimated max dynamical RAM per process >     159.80 MB

     Initial potential from superposition of free atoms

     starting charge      35.9941, renormalised to      36.0000
     Starting wfcs are   26 randomized atomic wfcs
     Checking if some PAW data can be deallocated... 

     total cpu time spent up to now is        1.9 secs

     Self-consistent Calculation

     iteration #  1     ecut=    20.00 Ry     beta= 0.70
     CG style diagonalization
     ethr =  1.00E-02,  avg # of iterations =  2.0

     total cpu time spent up to now is        2.9 secs

     total energy              =    -595.15080970 Ry
     estimated scf accuracy    <       0.92997671 Ry

     iteration #  2     ecut=    20.00 Ry     beta= 0.70
     CG style diagonalization
     ethr =  2.58E-03,  avg # of iterations =  4.1

     total cpu time spent up to now is        4.3 secs

     total energy              =    -595.46339269 Ry
     estimated scf accuracy    <       0.79665790 Ry

     iteration #  3     ecut=    20.00 Ry     beta= 0.70
     CG style diagonalization
     ethr =  2.21E-03,  avg # of iterations =  3.6

     total cpu time spent up to now is        5.5 secs

     total energy              =    -595.58989222 Ry
     estimated scf accuracy    <       0.00904839 Ry

     iteration #  4     ecut=    20.00 Ry     beta= 0.70
     CG style diagonalization
     ethr =  2.51E-05,  avg # of iterations =  5.0

     total cpu time spent up to now is        6.9 secs

     total energy              =    -595.60149174 Ry
     estimated scf accuracy    <       0.00591745 Ry

     iteration #  5     ecut=    20.00 Ry     beta= 0.70
     CG style diagonalization
     ethr =  1.64E-05,  avg # of iterations =  3.4

     total cpu time spent up to now is        8.1 secs

     total energy              =    -595.60192099 Ry
     estimated scf accuracy    <       0.00041375 Ry

     iteration #  6     ecut=    20.00 Ry     beta= 0.70
     CG style diagonalization
     ethr =  1.15E-06,  avg # of iterations =  4.5

     total cpu time spent up to now is        9.5 secs

     total energy              =    -595.60216951 Ry
     estimated scf accuracy    <       0.00014178 Ry

     iteration #  7     ecut=    20.00 Ry     beta= 0.70
     CG style diagonalization
     ethr =  3.94E-07,  avg # of iterations =  3.3

     total cpu time spent up to now is       10.6 secs

     total energy              =    -595.60217091 Ry
     estimated scf accuracy    <       0.00002713 Ry

     iteration #  8     ecut=    20.00 Ry     beta= 0.70
     CG style diagonalization
     ethr =  7.54E-08,  avg # of iterations =  4.0

     total cpu time spent up to now is       11.9 secs

     End of self-consistent calculation

          k = 0.0000 0.0000 0.0000 (   463 PWs)   bands (ev):

    -6.3963  -6.1556  -5.2272  -5.2005  -5.2005  -5.1786  -5.1786  -4.9788
    -4.9788  -4.8866  -4.8866  -2.8214   2.7561   9.2750   9.2750  10.5027
    10.6534  10.6534

          k = 0.0000 0.0000 0.1538 (   470 PWs)   bands (ev):

    -6.2859  -6.1553  -5.1992  -5.1992  -5.1926  -5.1926  -5.0863  -4.9699
    -4.9699  -4.9239  -4.9239  -3.5015   3.8668   8.7763   9.4375   9.4375
    10.3786  10.3786

          k = 0.0000 0.0000-0.3075 (   494 PWs)   bands (ev):

    -6.1737  -6.1737  -5.2351  -5.2351  -5.2351  -5.2351  -4.9664  -4.9664
    -4.9664  -4.9664  -4.5531  -4.5531   6.2039   6.2039   9.7761   9.7761
     9.7761   9.7761

          k = 0.0000 0.1925 0.0000 (   463 PWs)   bands (ev):

    -6.2597  -6.1445  -5.2033  -5.1857  -5.1279  -5.1000  -5.0274  -4.9953
    -4.9832  -4.9277  -4.8927  -2.5929   3.1252   7.3883   8.5768   8.6743
    10.1137  10.3566

          k = 0.0000 0.1925 0.1538 (   466 PWs)   bands (ev):

    -6.1899  -6.1381  -5.2016  -5.1843  -5.1442  -5.1183  -5.0168  -4.9833
    -4.9664  -4.9197  -4.7728  -3.2129   4.1085   7.5703   7.9234   8.8742
     9.7575  10.0238

          k = 0.0000 0.1925-0.3075 (   472 PWs)   bands (ev):

    -6.1262  -6.1262  -5.1826  -5.1826  -5.1594  -5.1594  -5.0114  -5.0114
    -4.9426  -4.9426  -4.1945  -4.1945   6.0571   6.0571   8.5699   8.5699
     9.4417   9.4417

          k = 0.0000 0.3849 0.0000 (   464 PWs)   bands (ev):

    -6.1679  -6.1399  -5.1625  -5.1543  -5.0854  -5.0413  -5.0294  -5.0165
    -4.9580  -4.8922  -4.0320  -2.1469   3.8320   5.0444   6.1697   7.6572
     8.9766   9.6581

          k = 0.0000 0.3849 0.1538 (   464 PWs)   bands (ev):

    -6.1400  -6.1200  -5.1773  -5.1411  -5.1088  -5.0411  -5.0345  -4.9876
    -4.9575  -4.8997  -3.8533  -2.5598   3.9140   5.2917   6.3351   7.9209
     9.0880   9.3078

          k = 0.0000 0.3849-0.3075 (   458 PWs)   bands (ev):

    -6.0994  -6.0994  -5.1530  -5.1530  -5.0890  -5.0890  -4.9911  -4.9911
    -4.9289  -4.9289  -3.3032  -3.3032   4.4798   4.4798   8.0902   8.0902
     8.6099   8.6099

          k = 0.0000-0.5774 0.0000 (   468 PWs)   bands (ev):

    -6.1733  -6.1361  -5.1703  -5.1620  -5.0724  -5.0525  -5.0144  -5.0036
    -4.9317  -4.8983  -3.0006  -2.2500   3.3734   4.5979   5.6862   7.2287
     7.9183   9.3049

          k = 0.0000-0.5774 0.1538 (   468 PWs)   bands (ev):

    -6.1517  -6.1246  -5.1872  -5.1365  -5.1113  -5.0513  -5.0198  -4.9733
    -4.9335  -4.9030  -2.9173  -2.3692   3.1120   3.9963   6.6907   7.5096
     8.4794   8.9222

          k = 0.0000-0.5774-0.3075 (   464 PWs)   bands (ev):

    -6.1153  -6.1153  -5.1705  -5.1705  -5.0662  -5.0662  -4.9824  -4.9824
    -4.9149  -4.9149  -2.6588  -2.6588   3.2499   3.2499   8.2074   8.2074
     8.2158   8.2158

          k = 0.1667 0.2887 0.0000 (   470 PWs)   bands (ev):

    -6.1654  -6.1389  -5.1981  -5.1488  -5.0870  -5.0739  -5.0464  -4.9988
    -4.9846  -4.9280  -4.3480  -2.2247   3.7397   5.9422   6.4488   7.5973
     9.3710   9.3836

          k = 0.1667 0.2887 0.1538 (   464 PWs)   bands (ev):

    -6.1292  -6.1240  -5.1645  -5.1581  -5.1057  -5.0877  -5.0139  -5.0068
    -4.9460  -4.9268  -4.1536  -2.7164   4.2507   6.0786   6.5799   7.6268
     9.0239   9.4010

          k = 0.1667 0.2887-0.3075 (   466 PWs)   bands (ev):

    -6.1019  -6.1019  -5.1555  -5.1555  -5.1176  -5.1176  -5.0182  -5.0182
    -4.9320  -4.9320  -3.5712  -3.5712   5.1729   5.1729   8.0935   8.0935
     8.3097   8.3097

          k = 0.1667 0.4811 0.0000 (   462 PWs)   bands (ev):

    -6.1506  -6.1354  -5.1815  -5.1209  -5.0528  -5.0374  -5.0151  -5.0067
    -4.9476  -4.9090  -3.1587  -2.0340   3.8102   4.8365   5.7382   6.3167
     8.1524   8.5031

          k = 0.1667 0.4811 0.1538 (   466 PWs)   bands (ev):

    -6.1316  -6.1223  -5.1580  -5.1420  -5.0937  -5.0499  -5.0213  -4.9950
    -4.9441  -4.9255  -3.0352  -2.2388   3.5574   4.4079   6.2020   7.0134
     7.9842   8.6870

          k = 0.1667 0.4811-0.3075 (   466 PWs)   bands (ev):

    -6.1077  -6.1077  -5.1474  -5.1474  -5.0893  -5.0893  -4.9954  -4.9954
    -4.9404  -4.9404  -2.6787  -2.6787   3.7193   3.7193   7.0195   7.0195
     8.4767   8.4767

          k = 0.3333 0.5774 0.0000 (   462 PWs)   bands (ev):

    -6.1385  -6.1385  -5.1912  -5.0415  -5.0374  -5.0374  -5.0151  -5.0151
    -4.9867  -4.9554  -2.3005  -2.3005   4.4714   4.4714   4.5860   7.0682
     7.0682   7.4800

          k = 0.3333 0.5774 0.1538 (   471 PWs)   bands (ev):

    -6.1266  -6.1266  -5.1827  -5.0955  -5.0955  -5.0577  -4.9933  -4.9910
    -4.9910  -4.9789  -2.3033  -2.3033   3.9988   3.9988   4.9102   6.9130
     7.8516   7.8516

          k = 0.3333 0.5774-0.3075 (   450 PWs)   bands (ev):

    -6.0938  -6.0938  -5.1011  -5.1011  -5.0819  -5.0819  -4.9679  -4.9679
    -4.9532  -4.9532  -2.2732  -2.2732   3.6864   3.6864   5.8425   5.8425
     8.6811   8.6811

     highest occupied level (ev):    10.6534

!    total energy              =    -595.60217981 Ry
     estimated scf accuracy    <       0.00000003 Ry

     The total energy is the sum of the following terms:
     one-electron contribution =    -178.59292763 Ry
     hartree contribution      =     124.19051644 Ry
     xc contribution           =     -86.71676091 Ry
     ewald contribution        =    -233.28276133 Ry
     one-center paw contrib.   =    -221.20024639 Ry

     convergence has been achieved in   8 iterations

     Forces acting on atoms (cartesian axes, Ry/au):

     atom    1 type  1   force =     0.00000000   -0.00000000   -0.00449970
     atom    2 type  1   force =    -0.00000000   -0.00000000   -0.00449970
     atom    3 type  2   force =    -0.00000000   -0.00000000    0.00449970
     atom    4 type  2   force =     0.00000000    0.00000000    0.00449970

     Total force =     0.008999     Total SCF correction =     0.000339


     Computing stress (Cartesian axis) and pressure

          total   stress  (Ry/bohr**3)                   (kbar)     P=     -456.21
  -0.00317414  -0.00000000   0.00000000         -466.93       -0.00        0.00
  -0.00000000  -0.00317414   0.00000000           -0.00     -466.93        0.00
  -0.00000000  -0.00000000  -0.00295555           -0.00       -0.00     -434.78


     Writing all to output data dir /home/nico-sachs/source/q-e/tempdir/gan.save/ :
     XML data file, charge density, pseudopotentials, collected wavefunctions

     init_run     :      1.65s CPU      1.75s WALL (       1 calls)
     electrons    :      9.24s CPU     10.01s WALL (       1 calls)
     forces       :      0.32s CPU      0.35s WALL (       1 calls)
     stress       :      1.45s CPU      1.57s WALL (       1 calls)

     Called by init_run:
     wfcinit      :      0.25s CPU      0.25s WALL (       1 calls)
     potinit      :      0.55s CPU      0.59s WALL (       1 calls)
     hinit0       :      0.70s CPU      0.70s WALL (       1 calls)

     Called by electrons:
     c_bands      :      4.03s CPU      4.15s WALL (       8 calls)
     sum_band     :      1.33s CPU      1.68s WALL (       8 calls)
     v_of_rho     :      0.26s CPU      0.27s WALL (       9 calls)
     newd         :      1.16s CPU      1.50s WALL (       9 calls)
     PAW_pot      :      2.93s CPU      2.97s WALL (       9 calls)
     mix_rho      :      0.01s CPU      0.01s WALL (       8 calls)

     Called by c_bands:
     init_us_2    :      0.05s CPU      0.05s WALL (     399 calls)
     ccgdiagg     :      3.29s CPU      3.40s WALL (     168 calls)
     wfcrot       :      0.95s CPU      0.96s WALL (     168 calls)

     Called by *cgdiagg:
     h_psi        :      2.51s CPU      2.58s WALL (    8808 calls)
     s_psi        :      0.80s CPU      0.82s WALL (   17448 calls)

     Called by h_psi:
     h_psi:calbec :      0.56s CPU      0.58s WALL (    8808 calls)
     vloc_psi     :      1.44s CPU      1.48s WALL (    8808 calls)
                                        0.00s GPU  (    8808 calls)
     add_vuspsi   :      0.46s CPU      0.47s WALL (    8808 calls)
     hs_1psi      :      2.22s CPU      2.29s WALL (    8640 calls)
     s_1psi       :      0.81s CPU      0.84s WALL (    8640 calls)

     General routines
     calbec       :      1.32s CPU      1.35s WALL (   17973 calls)
     fft          :      0.39s CPU      0.39s WALL (     140 calls)
     ffts         :      0.14s CPU      0.14s WALL (      17 calls)
     fftw         :      1.41s CPU      1.45s WALL (   26688 calls)
     interpolate  :      0.15s CPU      0.15s WALL (       9 calls)

     Parallel routines

     PWSCF        :     12.81s CPU     13.87s WALL


   This run was terminated on:  15:26:12  27Jan2026            

=------------------------------------------------------------------------------=
   JOB DONE.
=------------------------------------------------------------------------------=
